inchikey,Name,SMILES_stand,SMILES,kekSmiles,logS
AZHGGDCFQPMANU-UHFFFAOYSA-N,"3,4-Dihydro-1H-1,4-benzodiazepine-2,5-dione",O=C1CNC(=O)c2ccccc2N1,c1ccc2c(c1)C(=O)NCC(=O)N2,O=C1CNC(=O)C2=C(C=CC=C2)N1,-2.852
AZHXFKCTCUPFGL-UHFFFAOYSA-N,,Cc1ccc(F)c(Nc2ccnc(Nc3ccc(S(N)(=O)=O)cc3)n2)c1,Cc1ccc(c(c1)Nc2ccnc(n2)Nc3ccc(cc3)S(=O)(=O)N)F,CC=1C=CC(=C(C1)NC=2C=CN=C(N2)NC=3C=CC(=CC3)S(=O)(=O)N)F,-5.3565473
AZJRCVCEAUZFNB-UHFFFAOYSA-N,,N#CCS(=O)(=O)c1ccc(Nc2ncc(C#N)c(NC3CC3)n2)cc1,c1cc(ccc1Nc2ncc(c(n2)NC3CC3)C#N)S(=O)(=O)CC#N,O=S(=O)(CC#N)C=1C=CC(=CC1)NC=2N=CC(=C(N2)NC3CC3)C#N,-6.537602
AZKRMADMLBGMOJ-UHFFFAOYSA-N,"3-p-anisidino-propane-1,2-diol",COc1ccc(NCC(O)CO)cc1,COc1ccc(cc1)NCC(CO)O,N(C1=CC=C(C=C1)OC)CC(O)CO,-0.295
AZLAWGCUDHUQDB-UHFFFAOYSA-N,4-ISOPROPYLHEPTANE,CCCC(CCC)C(C)C,CCCC(CCC)C(C)C,CCCC(CCC)C(C)C,-6.169
AZOCECCLWFDTAP-UHFFFAOYSA-N,l-Dihydrocarvone,C=C(C)C1CCC(C)C(=O)C1,CC1CCC(CC1=O)C(=C)C,O=C1CC(CCC1C)C(=C)C,-2.18
AZOIFVRKODQOLQ-UHFFFAOYSA-N,,O=C(NO)C1CCCCN1S(=O)(=O)c1ccc(Oc2ccc(Cl)cc2)cc1,c1cc(ccc1Oc2ccc(cc2)Cl)S(=O)(=O)N3CCCCC3C(=O)NO,ONC(=O)C1CCCCN1S(=O)(=O)C=2C=CC(=CC2)OC=3C=CC(=CC3)Cl,-3.9746941
AZPJXONNBLOZFE-UHFFFAOYSA-N,3'-Methylphthalanilic Acid,Cc1cccc(NC(=O)c2ccccc2C(=O)O)c1,Cc1cccc(c1)NC(=O)c2ccccc2C(=O)O,CC=1C=CC=C(C1)NC(=O)C=2C=CC=CC2C(=O)O,-2.407
AZSNMRSAGSSBNP-UHFFFAOYSA-N,ivermectin,CC[C@H](C)[C@H]1O[C@]2(CC[C@@H]1C)C[C@@H]1C[C@@H](C/C=C(/C)[C@@H](O[C@H]3C[C@H](OC)[C@@H](O[C@H]4C[C@H](OC)[C@@H](O)[C@H](C)O4)[C@H](C)O3)[C@@H](C)/C=C\C=C3\CO[C@@H]4[C@H](O)C(C)=C[C@@H](C(=O)O1)[C@]34O)O2,CC[C@H](C)[C@@H]1[C@H](CC[C@@]2(O1)C[C@@H]3C[C@H](O2)C/C=C(\[C@H]([C@H](\C=C/C=C\4/CO[C@H]5[C@@]4([C@@H](C=C([C@H]5O)C)C(=O)O3)O)C)O[C@H]6C[C@@H]([C@H]([C@@H](O6)C)O[C@H]7C[C@@H]([C@H]([C@@H](O7)C)O)OC)OC)/C)C,CC[C@H](C)[C@@H]1[C@H](CC[C@@]2(O1)C[C@@H]3C[C@H](O2)C/C=C(\[C@H]([C@H](\C=C/C=C\4/CO[C@H]5[C@@]4([C@@H](C=C([C@H]5O)C)C(=O)O3)O)C)O[C@H]6C[C@@H]([C@H]([C@@H](O6)C)O[C@H]7C[C@@H]([C@H]([C@@H](O7)C)O)OC)OC)/C)C,-3.988996365
AZTASYUCICISGN-UHFFFAOYSA-N,,CC1CN(C(=O)c2ccc(C(C)(C)C)cc2)CCN1C(=O)C(C)(O)C(F)(F)F,CC1CN(CCN1C(=O)C(C)(C(F)(F)F)O)C(=O)c2ccc(cc2)C(C)(C)C,CC1CN(CCN1C(=O)C(C)(O)C(F)(F)F)C(=O)C=2C=CC(=CC2)C(C)(C)C,-3.853872
AZXVAZLIFVUJGX-UHFFFAOYSA-N,,COc1cc2c(Nc3ccc(NC(=O)c4ccccc4)cc3)ncnc2cc1OCCNCc1ccsc1,COc1cc2c(cc1OCCNCc3ccsc3)ncnc2Nc4ccc(cc4)NC(=O)c5ccccc5,COC=1C=C2C(=NC=NC2=CC1OCCNCC=3C=CSC3)NC=4C=CC(=CC4)NC(=O)C=5C=CC=CC5,-4.094744
AZYSOGIJGXOMLZ-UHFFFAOYSA-N,"Benzenamine, N,4-dinitro-",O=[N+]([O-])Nc1ccc([N+](=O)[O-])cc1,c1cc(ccc1N[N+](=O)[O-])[N+](=O)[O-],[N+](=O)(NC=1C=CC(=CC1)[N+](=O)[O-])[O-],-2.0
AZZWZMUXHALBCQ-UHFFFAOYSA-N,"4,4'-Methylenebis(2,6-dimethylphenol)",Cc1cc(Cc2cc(C)c(O)c(C)c2)cc(C)c1O,Cc1cc(cc(c1O)C)Cc2cc(c(c(c2)C)O)C,CC=1C=C(C=C(C1O)C)CC=2C=C(C(=C(C2)C)O)C,-3.408912426
BAAUCXCLMDAZEL-UHFFFAOYSA-N,"Benzenamine, 2-bromo-5-nitro-",Nc1cc([N+](=O)[O-])ccc1Br,c1cc(c(cc1[N+](=O)[O-])N)Br,NC=1C=C(C=CC1Br)[N+](=O)[O-],-3.5580000000000003
BABJTMNVJXLAEX-UHFFFAOYSA-N,triamiphos,CN(C)P(=O)(N(C)C)n1nc(-c2ccccc2)nc1N,CN(C)P(=O)(n1c(nc(n1)c2ccccc2)N)N(C)C,CN(C)P(=O)(N(C)C)N1N=C(N=C1N)C=2C=CC=CC2,-3.0709
BABXZGSLQNQXCF-UHFFFAOYSA-N,,COc1cc(NC(=O)OCc2cccc(OCCCC(=O)OCCCN(C)C)c2)c(C)cc1NC(=O)Nc1ccccc1C,Cc1ccccc1NC(=O)Nc2cc(c(cc2OC)NC(=O)OCc3cccc(c3)OCCCC(=O)OCCCN(C)C)C,COC=1C=C(C(=CC1NC(=O)NC=2C=CC=CC2C)C)NC(=O)OCC=3C=CC=C(C3)OCCCC(=O)OCCCN(C)C,-6.568636200000001
BACBENYXFJLIEZ-UHFFFAOYSA-N,,CCNc1nc(C)c(Cl)c(OCCCCO)n1,CCNc1nc(c(c(n1)OCCCCO)Cl)C,CCNC=1N=C(C(=C(N1)OCCCCO)Cl)C,-3.3467875
BACHBFVBHLGWSL-UHFFFAOYSA-N,Diclofop-methyl,COC(=O)C(C)Oc1ccc(Oc2ccc(Cl)cc2Cl)cc1,CC(C(=O)OC)Oc1ccc(cc1)Oc2ccc(cc2Cl)Cl,ClC=1C(=CC=C(C1)Cl)OC=2C=CC(=CC2)OC(C(=O)OC)C,-3.82
BACJVAQLQUPCBZ-UHFFFAOYSA-N,,COc1cc2ncnc(Nc3cc(F)cc(C(F)(F)F)c3)c2cc1OCCCN1CCOCC1,COc1cc2c(cc1OCCCN3CCOCC3)c(ncn2)Nc4cc(cc(c4)F)C(F)(F)F,COC=1C=C2N=CN=C(C2=CC1OCCCN3CCOCC3)NC=4C=C(C=C(C4)C(F)(F)F)F,-4.6575773
BACYUWVYYTXETD-UHFFFAOYSA-N,N-Dodecanoyl-N-methylglycine,CCCCCCCCCCCC(=O)N(C)CC(=O)O,CCCCCCCCCCCC(=O)N(C)CC(=O)O,CCCCCCCCCCCC(=O)N(C)CC(=O)O,-2.73482072
BADXJIPKFRBFOT-UHFFFAOYSA-N,"5,5-dimethylcyclohexane-1,3-dione",CC1(C)CC(=O)CC(=O)C1,CC1(CC(=O)CC(=O)C1)C,CC1(CC(=O)CC(=O)C1)C,-1.528
BADZMXOBJSDGCW-UHFFFAOYSA-N,,COCCNS(=O)(=O)c1ccc(Nc2nccc(-c3cnc(C(C)C)n3C)n2)cc1,CC(C)c1ncc(n1C)c2ccnc(n2)Nc3ccc(cc3)S(=O)(=O)NCCOC,COCCNS(=O)(=O)C=1C=CC(=CC1)NC=2N=CC=C(N2)C3=CN=C(N3C)C(C)C,-4.853872
BAHZPNMDZBTVDJ-UHFFFAOYSA-N,,COc1cc2ncnc(Nc3ccc(F)c(Cl)c3)c2cc1OCCCN1CCC(N2CCCC2)CC1,COc1cc2c(cc1OCCCN3CCC(CC3)N4CCCC4)c(ncn2)Nc5ccc(c(c5)Cl)F,COC=1C=C2N=CN=C(C2=CC1OCCCN3CCC(CC3)N4CCCC4)NC=5C=CC(=C(C5)Cl)F,-4.1366771
BAIISSWGEDKHNE-UHFFFAOYSA-N,"5-[(2-methylpropylamino)methyl]thieno[3,2-d]furan-2-sulfonamide",CC(C)CNCc1cc2cc(S(N)(=O)=O)oc2s1,CC(C)CNCc1cc2cc(oc2s1)S(=O)(=O)N,S(=O)(=O)(C1=CC2=C(O1)SC(=C2)CNCC(C)C)N,-1.3285
BAINIUMDFURPJM-UHFFFAOYSA-N,oxatomide,O=c1[nH]c2ccccc2n1CCCN1CCN(C(c2ccccc2)c2ccccc2)CC1,c1ccc(cc1)C(c2ccccc2)N3CCN(CC3)CCCn4c5ccccc5[nH]c4=O,C1CN(CCN1CCCN2C3=CC=CC=C3NC2=O)C(C4=CC=CC=C4)C5=CC=CC=C5,-3.996501491
BAIPGCMVKIAUJL-UHFFFAOYSA-N,"Glycine, N-2-furoyl-2-phenyl-",O=C(NC(C(=O)O)c1ccccc1)c1ccco1,c1ccc(cc1)C(C(=O)O)NC(=O)c2ccco2,O1C(=CC=C1)C(=O)NC(C2=CC=CC=C2)C(=O)O,-2.244
BAJKDEOVHMHUMC-UHFFFAOYSA-N,,COc1cc2ncc(C#N)c(Nc3ccc(Oc4ccccc4OC)cc3)c2cc1OCCCN1CCN(C)CC1,CN1CCN(CC1)CCCOc2cc3c(cc2OC)ncc(c3Nc4ccc(cc4)Oc5ccccc5OC)C#N,COC=1C=CC=CC1OC=2C=CC(=CC2)NC=3C(=CN=C4C3C=C(C(=C4)OC)OCCCN5CCN(CC5)C)C#N,-4.537602
BAJQRLZAPXASRD-UHFFFAOYSA-N,P-NITROBIPHENYL,O=[N+]([O-])c1ccc(-c2ccccc2)cc1,c1ccc(cc1)c2ccc(cc2)[N+](=O)[O-],[N+](=O)(C=1C=CC(=CC1)C2=CC=CC=C2)[O-],-5.2092
BAKWJOULPYBIME-UHFFFAOYSA-N,"Benzenesulfonamide, 4-amino-N-[4-(diethylamino)-",CCN(CC)c1ccnc(NS(=O)(=O)c2ccc(N)cc2)n1,CCN(CC)c1ccnc(n1)NS(=O)(=O)c2ccc(cc2)N,S(=O)(=O)(NC=1N=C(C=CN1)N(CC)CC)C=2C=CC(=CC2)N,-3.884
BALAUIYKESNHDW-UHFFFAOYSA-N,Tricyclodecenyl propionate,CCC(=O)OC1C=CC2C3CCC(C3)C12,CCC(=O)OC1C=CC2C1C3CCC2C3,CCC(=O)OC1C=CC2C1C3CCC2C3,-3.558796397
BALXVBHNMTZGGC-UHFFFAOYSA-N,,C=C(C)COc1ccc(Br)cc1CN(CC)c1ccc(C(=O)NS(=O)(=O)c2ccccc2)nn1,CCN(Cc1cc(ccc1OCC(=C)C)Br)c2ccc(nn2)C(=O)NS(=O)(=O)c3ccccc3,CCN(CC=1C=C(C=CC1OCC(=C)C)Br)C=2C=CC(=NN2)C(=O)NS(=O)(=O)C=3C=CC=CC3,-5.0457575
BAPRUDZDYCKSOQ-UHFFFAOYSA-N,"(2S,4R)-1-acetyl-4-hydroxypyrrolidine-2-carboxylic acid",CC(=O)N1C[C@@H](O)C[C@H]1C(=O)O,CC(=O)N1C[C@H](C[C@H]1C(=O)O)O,CC(=O)N1C[C@H](C[C@H]1C(=O)O)O,0.34499636100000003
BAQFSTRQQMBRJX-UHFFFAOYSA-N,,CCC[S+]([O-])c1c2c(=O)n(C)c(=O)n(CC(C)C)c2cn1Cc1cccc2ccccc12,CCCS(=O)c1c2c(cn1Cc3cccc4c3cccc4)n(c(=O)n(c2=O)C)CC(C)C,O=S(CCC)C1=C2C(=O)N(C(=O)N(C2=CN1CC=3C=4C=CC=CC4C=CC3)CC(C)C)C,-7.844510799999999
BATVZJPOLFSGTD-UHFFFAOYSA-N,N-ethyl-N-{2-[1-(2-methylpropoxy)ethoxy]ethyl}-4-[(E)-2-phenyldiazen-1-yl]aniline,CCN(CCOC(C)OCC(C)C)c1ccc(/N=N/c2ccccc2)cc1,CCN(CCOC(C)OCC(C)C)c1ccc(cc1)/N=N/c2ccccc2,CCN(CCOC(C)OCC(C)C)C=1C=CC(=CC1)/N=N/C=2C=CC=CC2,-7.090751882999999
BAVONGHXFVOKBV-UHFFFAOYSA-N,(-)-Carveol;  5-Isopropenyl-2-methyl-2-cyclohexen-1-ol,C=C(C)C1CC=C(C)C(O)C1,CC1=CCC(CC1O)C(=C)C,CC(=C)C1CC=C(C(C1)O)C,-1.72
BAVRIFHPVXCJMQ-UHFFFAOYSA-N,,CSc1c(S(=O)(=O)C(C)C)ccc(NC(=O)C(C)(O)C(F)(F)F)c1Cl,CC(C)S(=O)(=O)c1ccc(c(c1SC)Cl)NC(=O)C(C)(C(F)(F)F)O,CSC=1C(=C(C=CC1S(=O)(=O)C(C)C)NC(=O)C(C)(O)C(F)(F)F)Cl,-3.9586072999999997
BAWUFGWWCWMUNU-UHFFFAOYSA-N,1-HEXYL-2-PYRROLIDONE,CCCCCCN1CCCC1=O,CCCCCCN1CCCC1=O,N1(C(=O)CCC1)CCCCCC,-1.101
BAXHNQDLFSRUFN-UHFFFAOYSA-N,,CN1CCN(CC(=O)N(C)c2ccc3ncnc(Nc4ccc(Oc5ccccc5)c(Cl)c4)c3c2)CC1,CN1CCN(CC1)CC(=O)N(C)c2ccc3c(c2)c(ncn3)Nc4ccc(c(c4)Cl)Oc5ccccc5,CN(C(=O)CN1CCN(CC1)C)C=2C=CC=3N=CN=C(C3C2)NC=4C=CC(=C(C4)Cl)OC=5C=CC=CC5,-4.853872
BAYNPZGFGAWMGG-UHFFFAOYSA-N,,NC(=O)Nc1sc(-c2ccccc2OCCN2CCCCC2)cc1C(N)=O,c1ccc(c(c1)c2cc(c(s2)NC(=O)N)C(=O)N)OCCN3CCCCC3,NC(=O)NC=1SC(=CC1C(=O)N)C=2C=CC=CC2OCCN3CCCCC3,-3.9208187999999993
BAYUSCHCCGXLAY-UHFFFAOYSA-N,1-(3-Methoxyphenyl)ethan-1-one,COc1cccc(C(C)=O)c1,CC(=O)c1cccc(c1)OC,COC=1C=CC=C(C1)C(=O)C,-1.869
BAZGVDKAIHZPOH-UHFFFAOYSA-N,"(8R,9S,13S,14S,17S)-17-hydroxy-13-methyl-2,4,6,7,8,9,11,12,14,15,16,17-dodecahydro-1H-cyclopenta[a]phenanthren-3-one",C[C@]12CC[C@@H]3C4=C(CC[C@H]3[C@@H]1CC[C@@H]2O)CC(=O)CC4,C[C@]12CC[C@H]3[C@H]([C@@H]1CC[C@@H]2O)CCC4=C3CCC(=O)C4,C[C@]12CC[C@H]3[C@H]([C@@H]1CC[C@@H]2O)CCC4=C3CCC(=O)C4,-4.947014372
BAZVSMNPJJMILC-UHFFFAOYSA-N,triadimenol (isomer 2),CC(C)(C)[C@@H](O)[C@H](Oc1ccc(Cl)cc1)n1cncn1,CC(C)(C)[C@H]([C@@H](n1cncn1)Oc2ccc(cc2)Cl)O,CC(C)(C)[C@H](O)[C@H](OC=1C=CC(=CC1)Cl)N2C=NC=N2,-3.679
BBAQPSBUZMVKIP-UHFFFAOYSA-N,,CC(=O)n1c2ccccc2c2cc(NC(=O)/C(C)=C/c3ccncc3)ccc21,C/C(=C\c1ccncc1)/C(=O)Nc2ccc3c(c2)c4ccccc4n3C(=O)C,CC(=O)N1C=2C=CC=CC2C3=C1C=CC(=C3)NC(=O)/C(=C/C=4C=CN=CC4)/C,-6.2441251
BBAWEDCPNXPBQM-UHFFFAOYSA-N,telaprevir,CCC[C@H](NC(=O)[C@@H]1[C@H]2CCC[C@H]2CN1C(=O)[C@@H](NC(=O)[C@@H](NC(=O)c1cnccn1)C1CCCCC1)C(C)(C)C)C(=O)C(=O)NC1CC1,CCC[C@@H](C(=O)C(=O)NC1CC1)NC(=O)[C@@H]2[C@H]3CCC[C@H]3CN2C(=O)[C@H](C(C)(C)C)NC(=O)[C@H](C4CCCCC4)NC(=O)c5cnccn5,CCC[C@@H](C(=O)C(=O)NC1CC1)NC(=O)[C@@H]2[C@H]3CCC[C@H]3CN2C(=O)[C@H](C(C)(C)C)NC(=O)[C@H](C4CCCCC4)NC(=O)C5=NC=CN=C5,-5.1603152439999995
BBBONINIJNPLOF-UHFFFAOYSA-N,,Cc1nc[nH]c1-c1c2c(=O)n(C)c(=O)n(CC(C)C)c2nn1Cc1csc2ccccc12,Cc1c([nH]cn1)c2c3c(nn2Cc4csc5c4cccc5)n(c(=O)n(c3=O)C)CC(C)C,CC(C)CN1C(=O)N(C(=O)C=2C1=NN(C2C=3NC=NC3C)CC4=CSC5=C4C=CC=C5)C,-5.075720700000001
BBBUAWSVILPJLL-UHFFFAOYSA-N,2-{[(2-ethylhexyl)oxy]methyl}oxirane,CCCCC(CC)COCC1CO1,CCCCC(CC)COCC1CO1,CCCCC(CC)COCC1CO1,-3.114932581
BBBYRJLYBLPEBL-UHFFFAOYSA-N,1-[(E)-2-(2-methoxyphenyl)diazen-1-yl]naphthalen-2-ol,COc1ccccc1N/N=C1\C(=O)C=Cc2ccccc21,COc1ccccc1N/N=C\2/c3ccccc3C=CC2=O,O(C=1C(=CC=CC1)N/N=C\2/C=3C(=CC=CC3)C=CC2=O)C,-8.925508216
BBEAQIROQSPTKN-UHFFFAOYSA-N,pyrene; benzo[def]phenanthrene,c1cc2ccc3cccc4ccc(c1)c2c34,c1cc2ccc3cccc4c3c2c(c1)cc4,C=1C=C2C=CC=3C=CC=C4C3C2=C(C1)C=C4,-6.176
BBEWSMNRCUXQRF-UHFFFAOYSA-N,4-Methyl-3-nitrobenzoic acid,Cc1ccc(C(=O)O)cc1[N+](=O)[O-],Cc1ccc(cc1[N+](=O)[O-])C(=O)O,CC=1C=CC(=CC1[N+](=O)[O-])C(=O)O,-2.8480490119999997
BBFJODMCHICIAA-UHFFFAOYSA-N,"3,4-Dihydroxy-5-nitrobenzaldehyde",O=Cc1cc(O)c(O)c([N+](=O)[O-])c1,c1c(cc(c(c1[N+](=O)[O-])O)O)C=O,OC=1C=C(C=C(C1O)[N+](=O)[O-])C=O,-1.937916956
BBFRYSKTTHYWQZ-UHFFFAOYSA-N,C.I. DISPERSE YELLOW 42,O=[N+]([O-])c1cc(S(=O)(=O)Nc2ccccc2)ccc1Nc1ccccc1,c1ccc(cc1)Nc2ccc(cc2[N+](=O)[O-])S(=O)(=O)Nc3ccccc3,S(=O)(=O)(C=1C=C(C(=CC1)NC2=CC=CC=C2)[N+](=O)[O-])NC=3C=CC=CC3,-6.269
BBFVLRHCOLVFKU-UHFFFAOYSA-N,,N#Cc1cnc(Nc2ccc(S(N)(=O)=O)cc2)nc1N,c1cc(ccc1Nc2ncc(c(n2)N)C#N)S(=O)(=O)N,NC=1N=C(N=CC1C#N)NC=2C=CC(=CC2)S(=O)(=O)N,-4.4436975
BBFWQWIFLDQYQQ-UHFFFAOYSA-N,"N-(3-bromophenyl)-8H-pyrrolo[3,2-g]quinazolin-4-amine",Brc1cccc(Nc2ncnc3cc4[nH]ccc4cc23)c1,c1cc(cc(c1)Br)Nc2c3cc4cc[nH]c4cc3ncn2,C12=CC3=C(C=C1N=CN=C2NC4=CC(=CC=C4)Br)NC=C3,-2.822
BBISBYXHIVTOTI-UHFFFAOYSA-N,,Clc1ccc(-c2c[nH]c(-c3ccccn3)n2)cc1,c1ccnc(c1)c2[nH]cc(n2)c3ccc(cc3)Cl,ClC=1C=CC(=CC1)C2=CNC(=N2)C=3C=CC=CN3,-6.4793485
BBITXNWQALLODC-UHFFFAOYSA-N,"2-[4-(4-oxo-4H-3,1-benzoxazin-2-yl)phenyl]-4H-3,1-benzoxazin-4-one",O=c1oc(-c2ccc(-c3nc4ccccc4c(=O)o3)cc2)nc2ccccc12,c1ccc2c(c1)c(=O)oc(n2)c3ccc(cc3)c4nc5ccccc5c(=O)o4,O=C1OC(=NC=2C1=CC=CC2)C3=CC=C(C=C3)C4=NC5=CC=CC=C5C(=O)O4,-6.517020147
BBJHPXHJTKRGFT-UHFFFAOYSA-N,"BENZOIC ACID, 5-(AMINOSULFONYL)-2-[(3-HYDROXYPRO",COC(=O)c1cc(S(N)(=O)=O)ccc1S(=O)(=O)CCCO,COC(=O)c1cc(ccc1S(=O)(=O)CCCO)S(=O)(=O)N,S(=O)(=O)(C=1C=C(C(=CC1)S(=O)(=O)CCCO)C(=O)OC)N,-1.382
BBJPZPLAZVZTGR-UHFFFAOYSA-N,THIAZAFLURON,CNC(=O)N(C)c1nnc(C(F)(F)F)s1,CNC(=O)N(C)c1nnc(s1)C(F)(F)F,S1C(=NN=C1N(C(=O)NC)C)C(F)(F)F,-2.0580000000000003
BBKDWPHJZANJGB-UHFFFAOYSA-N,QUIZALOFOP-P-TEFURYL,CC(Oc1ccc(Oc2cnc3cc(Cl)ccc3n2)cc1)C(=O)OCC1CCCO1,CC(C(=O)OCC1CCCO1)Oc2ccc(cc2)Oc3cnc4cc(ccc4n3)Cl,N=1C(=CN=C2C1C=CC(=C2)Cl)OC3=CC=C(C=C3)OC(C(=O)OCC4OCCC4)C,-5.03
BBKGKXNPYBEWIO-UHFFFAOYSA-N,,CCC(CC)CNC(=O)c1ccc2c(c1)c(Cc1ccc(C(=O)NS(=O)(=O)c3ccccc3C)cc1OC)cn2C,CCC(CC)CNC(=O)c1ccc2c(c1)c(cn2C)Cc3ccc(cc3OC)C(=O)NS(=O)(=O)c4ccccc4C,CCC(CC)CNC(=O)C=1C=CC=2N(C=C(C2C1)CC=3C=CC(=CC3OC)C(=O)NS(=O)(=O)C=4C=CC=CC4C)C,-4.0177288
BBMFSGOFUHEVNP-UHFFFAOYSA-N,Methylparaben,Cc1cc(O)ccc1C(=O)O,Cc1cc(ccc1C(=O)O)O,OC(=O)C1=C(C=C(C=C1)O)C,-1.495
BBMMISOHGVCAMY-UHFFFAOYSA-N,RTI 10,CN1C(=O)c2cccnc2Oc2ccccc21,CN1c2ccccc2Oc3c(cccn3)C1=O,O1C=2C=CC=CC2N(C(=O)C3=C1N=CC=C3)C,-3.6719999999999997
BBNQQADTFFCFGB-UHFFFAOYSA-N,PURPURIN,O=C1c2ccccc2C(=O)c2c(O)c(O)cc(O)c21,c1ccc2c(c1)C(=O)c3c(cc(c(c3C2=O)O)O)O,OC=1C=C(C2=C(C1O)C(=O)C3=C(C=CC=C3)C2=O)O,-4.6022
BBOLHCAQUHPGPL-UHFFFAOYSA-N,,CCCN1CCC(Oc2nccc(Nc3cc(NC(=O)c4cccc(N5CCOCC5)c4)ccc3C)n2)CC1,CCCN1CCC(CC1)Oc2nccc(n2)Nc3cc(ccc3C)NC(=O)c4cccc(c4)N5CCOCC5,CCCN1CCC(CC1)OC=2N=CC=C(N2)NC=3C=C(C=CC3C)NC(=O)C=4C=CC=C(C4)N5CCOCC5,-2.6220626
BBPLSOGERZQYQC-UHFFFAOYSA-N,"2,4-D, ISOOCTYL ESTER",CC(C)CCCCCOC(=O)COc1ccc(Cl)cc1Cl,CC(C)CCCCCOC(=O)COc1ccc(cc1Cl)Cl,C1(=CC(=CC=C1OCC(=O)OCCCCCC(C)C)Cl)Cl,-7.0120000000000005
BBRBTDYLDQRKHF-UHFFFAOYSA-N,,COc1cc2c(Nc3ccc(OCc4ccccn4)c(C)c3)ncnc2cc1OCCN(C)C,Cc1cc(ccc1OCc2ccccn2)Nc3c4cc(c(cc4ncn3)OCCN(C)C)OC,COC=1C=C2C(=NC=NC2=CC1OCCN(C)C)NC=3C=CC(=C(C3)C)OCC=4C=CC=CN4,-2.9208187999999997
BBUPBICWUURTNP-UHFFFAOYSA-N,"2,4-Dimethyl-1-nitrobenzene",Cc1ccc([N+](=O)[O-])c(C)c1,Cc1ccc(c(c1)C)[N+](=O)[O-],CC=1C=CC(=C(C1)C)[N+](=O)[O-],-3.055799804
BBVACIGGKIWECQ-UHFFFAOYSA-N,,COCCN(C)Cc1ccc(-c2cc(C(N)=O)c(NC(N)=O)s2)cc1,CN(CCOC)Cc1ccc(cc1)c2cc(c(s2)NC(=O)N)C(=O)N,COCCN(C)CC=1C=CC(=CC1)C2=CC(=C(S2)NC(=O)N)C(=O)N,-3.076756
BBVOMHRLNCRXRH-UHFFFAOYSA-N,"Azo Dye N2;  5-(4-Chloro-2-nitrophenylazo)-1-ethyl-6-hydroxy-4-methyl-2-oxo-1,2-dihydropyridine-3-carbonitrile",CCn1c(O)c(/N=N/c2ccc(Cl)cc2[N+](=O)[O-])c(C)c(C#N)c1=O,CCn1c(c(c(c(c1=O)C#N)C)/N=N/c2ccc(cc2[N+](=O)[O-])Cl)O,[N+](=O)([O-])C=1C=C(C=CC1/N=N/C2=C(N(C(=O)C(=C2C)C#N)CC)O)Cl,-6.69
BBVUAJTZGSWJDD-UHFFFAOYSA-N,"Benzenamine, 4-methyl-2-[(4-methylphenyl)azo]-",Cc1ccc(/N=N/c2cc(C)ccc2N)cc1,Cc1ccc(cc1)/N=N/c2cc(ccc2N)C,N(=N/C1=CC=C(C=C1)C)\C2=C(C=CC(=C2)C)N,-3.903
BBWUTEJWCOFQSA-UHFFFAOYSA-N,,COc1cc2ncnc(Nc3ccc(F)c(Cl)c3)c2cc1OCCCN1CCC(O)CC1,COc1cc2c(cc1OCCCN3CCC(CC3)O)c(ncn2)Nc4ccc(c(c4)Cl)F,COC=1C=C2N=CN=C(C2=CC1OCCCN3CCC(CC3)O)NC=4C=CC(=C(C4)Cl)F,-4.4317983
BBWYQCNFQUTQED-UHFFFAOYSA-N,"N-(3-bromophenyl)-1-methylpyrazolo[4,5-g]quinazolin-5-amine",Cn1ncc2cc3c(Nc4cccc(Br)c4)ncnc3cc21,Cn1c2cc3c(cc2cn1)c(ncn3)Nc4cccc(c4)Br,CN1N=CC2=C1C=C3N=CN=C(C3=C2)NC4=CC(=CC=C4)Br,-3.4805
BBXXLROWFHWFQY-UHFFFAOYSA-N,ethyrimol,CCCCc1c(C)nc(NCC)nc1O,CCCCc1c(nc(nc1O)NCC)C,O=C1C(=C(N=C(N1)NCC)C)CCCC,-3.0224849999999996
BBYDXOIZLAWGSL-UHFFFAOYSA-N,p-Fluorobenzoic acid,O=C(O)c1ccc(F)cc1,c1cc(ccc1C(=O)O)F,OC(=O)C=1C=CC(=CC1)F,-2.06715
BBZAHWDTDNWCEZ-UHFFFAOYSA-N,,COc1cc2c(Nc3ccc(F)c(Cl)c3)ncnc2cc1OCCN1CCCCC1,COc1cc2c(cc1OCCN3CCCCC3)ncnc2Nc4ccc(c(c4)Cl)F,COC=1C=C2C(=NC=NC2=CC1OCCN3CCCCC3)NC=4C=CC(=C(C4)Cl)F,-4.537602
BBZUBCUIVIEBCP-UHFFFAOYSA-N,,CN(C)CCCNS(=O)(=O)c1ccc(Nc2nccc(-c3cnc4cccnn34)n2)cc1,CN(C)CCCNS(=O)(=O)c1ccc(cc1)Nc2nccc(n2)c3cnc4n3nccc4,CN(C)CCCNS(=O)(=O)C=1C=CC(=CC1)NC=2N=CC=C(N2)C3=CN=C4N3N=CC=C4,-3.7958800000000004
BCADYHDXKNITIQ-UHFFFAOYSA-N,,NS(=O)(=O)c1ccccc1NC(=O)c1cc([N+](=O)[O-])ccc1Cl,c1ccc(c(c1)NC(=O)c2cc(ccc2Cl)[N+](=O)[O-])S(=O)(=O)N,NS(=O)(=O)C=1C=CC=CC1NC(=O)C=2C=C(C=CC2Cl)[N+](=O)[O-],-5.5968795
BCAIDFOKQCVACE-UHFFFAOYSA-O,dimethyl[2-[(2-methyl-1-oxoallyl)oxy]ethyl](3-sulphopropyl)ammonium hydroxide,C=C(C)C(=O)OCC[N+](C)(C)CCCS(=O)(=O)O,CC(=C)C(=O)OCC[N+](C)(C)CCCS(=O)(=O)O,CC(=C)C(=O)OCC[N+](C)(C)CCCS(=O)(=O)O,0.962719985
BCAPDEASTZPHRC-UHFFFAOYSA-N,,CC(CN1CCOCC1)C(=O)Nc1ccc2sc3ccccc3c2c1,CC(CN1CCOCC1)C(=O)Nc2ccc3c(c2)c4ccccc4s3,CC(CN1CCOCC1)C(=O)NC=2C=CC=3SC=4C=CC=CC4C3C2,-5.055517299999999
BCBUFIIWAIGYSS-UHFFFAOYSA-N,,COc1cc(CC(=O)Nc2ccc(OC3CCN(S(=O)(=O)c4c(C)noc4C)C3)c(OCC(C)CC(=O)O)c2)cc2oc(Nc3ccccc3)nc12,Cc1c(c(on1)C)S(=O)(=O)N2CCC(C2)Oc3ccc(cc3OCC(C)CC(=O)O)NC(=O)Cc4cc5c(c(c4)OC)nc(o5)Nc6ccccc6,COC=1C=C(C=C2C1N=C(O2)NC=3C=CC=CC3)CC(=O)NC=4C=CC(=C(C4)OCC(C)CC(=O)O)OC5CCN(C5)S(=O)(=O)C=6C(=NOC6C)C,-4.920818799999999
BCEHBSKCWLPMDN-UHFFFAOYSA-N,voriconazole,C[C@@H](c1ncncc1F)[C@](O)(Cn1cncn1)c1ccc(F)cc1F,C[C@@H](c1c(cncn1)F)[C@](Cn2cncn2)(c3ccc(cc3F)F)O,C[C@@H](C1=NC=NC=C1F)[C@](CN2C=NC=N2)(C3=C(C=C(C=C3)F)F)O,-2.698112979
BCEQKAQCUWUNML-UHFFFAOYSA-N,4-Hydroxyisophthalic acid,O=C(O)c1ccc(O)c(C(=O)O)c1,c1cc(c(cc1C(=O)O)C(=O)O)O,OC(=O)C=1C=CC(=C(C1)C(=O)O)O,-2.783
BCFDLVHUONMLFG-UHFFFAOYSA-N,,COc1cc2ncc(C#N)c(Nc3ccc(Oc4ccccc4OCCNC4CC4)cc3)c2cc1OC,COc1cc2c(cc1OC)ncc(c2Nc3ccc(cc3)Oc4ccccc4OCCNC5CC5)C#N,COC=1C=C2N=CC(=C(C2=CC1OC)NC=3C=CC(=CC3)OC=4C=CC=CC4OCCNC5CC5)C#N,-6.5086383
BCFGMOOMADDAQU-UHFFFAOYSA-N,lapatinib ditosylate,CS(=O)(=O)CCNCc1ccc(-c2ccc3ncnc(Nc4ccc(OCc5cccc(F)c5)c(Cl)c4)c3c2)o1,CS(=O)(=O)CCNCc1ccc(o1)c2ccc3c(c2)c(ncn3)Nc4ccc(c(c4)Cl)OCc5cccc(c5)F,CS(=O)(=O)CCNCC1=CC=C(O1)C2=CC3=C(C=C2)N=CN=C3NC4=CC(=C(C=C4)OCC5=CC(=CC=C5)F)Cl,-5.966357652999999
BCGWQEUPMDMJNV-UHFFFAOYSA-N,imipramine hydrochloride,CN(C)CCCN1c2ccccc2CCc2ccccc21,CN(C)CCCN1c2ccccc2CCc3c1cccc3,CN(CCCN1C2=C(C=CC=C2)CCC3=C1C=CC=C3)C,-4.187
BCHOKJRLDTXCSF-UHFFFAOYSA-N,"Propanoic acid, 2-(acetyloxy)-, ethyl ester",CCOC(=O)C(C)OC(C)=O,CCOC(=O)C(C)OC(=O)C,CCOC(=O)C(C)OC(=O)C,-0.6994
BCINCJSHDIKDTH-UHFFFAOYSA-N,3-Fluoro-n-hydroxy-n-(2-methylphenyl)benzamide,Cc1ccccc1N(O)C(=O)c1cccc(F)c1,Cc1ccccc1N(C(=O)c2cccc(c2)F)O,CC1=C(C=CC=C1)N(O)C(=O)C2=CC(=CC=C2)F,-2.531
BCIQMIPYVSZUAP-UHFFFAOYSA-N,,O=C(O)COCCOc1cccc(NC(=O)Cc2ccc3nc(Nc4ccccc4)oc3c2)c1,c1ccc(cc1)Nc2nc3ccc(cc3o2)CC(=O)Nc4cccc(c4)OCCOCC(=O)O,OC(=O)COCCOC=1C=CC=C(C1)NC(=O)CC=2C=CC=3N=C(OC3C2)NC=4C=CC=CC4,-2.8239087000000005
BCIXVEZFKFKQET-UHFFFAOYSA-N,,Cc1sc(N2CCN(C)CC2)nc1CCOc1ccc(CC(Nc2ccccc2C(=O)c2ccccc2)C(=O)O)cc1,Cc1c(nc(s1)N2CCN(CC2)C)CCOc3ccc(cc3)CC(C(=O)O)Nc4ccccc4C(=O)c5ccccc5,CN1CCN(CC1)C2=NC(=C(S2)C)CCOC=3C=CC(=CC3)CC(NC=4C=CC=CC4C(=O)C=5C=CC=CC5)C(=O)O,-4.0111382
BCLOBWIFURSERL-UHFFFAOYSA-N,2-[(3-aminophenyl)sulfonyl]ethyl hydrogen sulfate,Nc1cccc(S(=O)(=O)CCOS(=O)(=O)O)c1,c1cc(cc(c1)S(=O)(=O)CCOS(=O)(=O)O)N,NC=1C=CC=C(C1)S(=O)(=O)CCOS(=O)(=O)O,-1.423940425
BCNWJNNKUUMDHS-UHFFFAOYSA-N,"PIPERIDINE, 1-[(BENZOYLOXY)ACETYL]-",O=C(OCC(=O)N1CCCCC1)c1ccccc1,c1ccc(cc1)C(=O)OCC(=O)N2CCCCC2,O=C(OCC(=O)N1CCCCC1)C2=CC=CC=C2,-2.501
BCOXBEHFBZOJJZ-UHFFFAOYSA-N,(3Z)-Hex-3-en-1-yl benzoate,CC/C=C\CCOC(=O)c1ccccc1,CC/C=C\CCOC(=O)c1ccccc1,CC/C=C\CCOC(=O)C=1C=CC=CC1,-3.704948709
BCPQALWAROJVLE-UHFFFAOYSA-N,"P-(2,4-DINITROANILINE)PHENOL",O=[N+]([O-])c1ccc(Nc2ccc(O)cc2)c([N+](=O)[O-])c1,c1cc(ccc1Nc2ccc(cc2[N+](=O)[O-])[N+](=O)[O-])O,OC=1C=CC(=CC1)NC=2C=CC(=CC2[N+](=O)[O-])[N+](=O)[O-],-5.444
BCQKJGFEDOLLJL-UHFFFAOYSA-N,"(2E)-2-(2,3,4,5-Tetrahydroxyhexylidene)hydrazinecarboxamide",CC(O)C(O)C(O)C(O)/C=N/NC(N)=O,CC(C(C(C(/C=N/NC(=O)N)O)O)O)O,CC(O)C(O)C(O)C(O)/C=N/NC(=O)N,-0.7
BCQMBFHBDZVHKU-UHFFFAOYSA-N,"terbumeton;  2-tert-butylamino-4-ethylamino-6-methoxy-1,3,5-triazine",CCNc1nc(NC(C)(C)C)nc(OC)n1,CCNc1nc(nc(n1)OC)NC(C)(C)C,CCNC=1N=C(N=C(N1)OC)NC(C)(C)C,-3.239
BCSGAWBQJHXXSE-UHFFFAOYSA-N,bis(11-methyldodecyl) phthalate,CC(C)CCCCCCCCCCOC(=O)c1ccccc1C(=O)OCCCCCCCCCCC(C)C,CC(C)CCCCCCCCCCOC(=O)c1ccccc1C(=O)OCCCCCCCCCCC(C)C,CC(C)CCCCCCCCCCOC(=O)C=1C=CC=CC1C(=O)OCCCCCCCCCCC(C)C,-5.724979366
BCTQJXQXJVLSIG-UHFFFAOYSA-N,MEPRONIL,Cc1ccccc1C(=O)Nc1cccc(OC(C)C)c1,Cc1ccccc1C(=O)Nc2cccc(c2)OC(C)C,CC(C)OC=1C=CC=C(C1)NC(=O)C=2C=CC=CC2C,-4.327
BCUDENMQYSKCLW-UHFFFAOYSA-N,"Ethyl (2-{[(4-aminophenyl)sulfonyl]amino}-4-methyl-1,3-thiazol-5-yl)acetate",CCOC(=O)Cc1sc(NS(=O)(=O)c2ccc(N)cc2)nc1C,CCOC(=O)Cc1c(nc(s1)NS(=O)(=O)c2ccc(cc2)N)C,CCOC(=O)CC1=C(N=C(S1)NS(=O)(=O)C2=CC=C(C=C2)N)C,-2.8785
BCUWMWRGIOYNAU-UHFFFAOYSA-N,"3,4-Dideoxy-2,5-di-S-ethyl-2,5-dithiohexaric acid",CCSC(CCC(SCC)C(=O)O)C(=O)O,CCSC(CCC(C(=O)O)SCC)C(=O)O,CCSC(CCC(SCC)C(=O)O)C(=O)O,-1.3585
BCVQNZJVLDJVMB-UHFFFAOYSA-N,,O=C(Nc1ccc(Br)cc1)Nc1ccccc1C(=O)Oc1ccccc1,c1ccc(cc1)OC(=O)c2ccccc2NC(=O)Nc3ccc(cc3)Br,BrC=1C=CC(=CC1)NC(=O)NC=2C=CC=CC2C(=O)OC=3C=CC=CC3,-4.8860566
BCVUYVOMXUKYFC-UHFFFAOYSA-N,"2,4,7(1h,3h,8h)-pteridinetrione;  2,4,7-pteridinetrione",O=c1cnc2c(=O)[nH]c(=O)[nH]c2[nH]1,c1c(=O)[nH]c2c(n1)c(=O)[nH]c(=O)[nH]2,O=C1NC(=O)C2=C(N1)NC(=O)C=N2,-3.34
BCWHXWFUPAGMCN-UHFFFAOYSA-N,,COc1cc(CC(=O)N2CCN(c3ncnc4ccsc34)CC2)ccc1O,COc1cc(ccc1O)CC(=O)N2CCN(CC2)c3c4c(ccs4)ncn3,COC=1C=C(C=CC1O)CC(=O)N2CCN(CC2)C=3N=CN=C4C3SC=C4,-4.522878700000001