inchikey,Name,SMILES_stand,SMILES,kekSmiles,logS
HIINQLBHPIQYHN-UHFFFAOYSA-N,L-tyrosylglycylglycine,NC(Cc1ccc(O)cc1)C(=O)NCC(=O)NCC(=O)O,c1cc(ccc1CC(C(=O)NCC(=O)NCC(=O)O)N)O,NC(CC1=CC=C(C=C1)O)C(=O)NCC(=O)NCC(=O)O,-1.47
HIIRDDUVRXCDBN-UHFFFAOYSA-N,SSF-126,CNC(=O)/C(=N\OC)c1ccccc1Oc1ccccc1,CNC(=O)/C(=N\OC)/c1ccccc1Oc2ccccc2,O=C(NC)/C(=N\OC)/C1=CC=CC=C1OC2=CC=CC=C2,-3.347
HIJHWRQHYCERSH-UHFFFAOYSA-N,,COc1cc2c(Nc3ccc(F)c(Cl)c3)ncnc2cc1O,COc1cc2c(cc1O)ncnc2Nc3ccc(c(c3)Cl)F,COC=1C=C2C(=NC=NC2=CC1O)NC=3C=CC(=C(C3)Cl)F,-5.026872099999999
HIJJVVYROHQBNF-UHFFFAOYSA-N,,CCn1c2ccccc2c2cc(Nc3nc(C(N)=O)cs3)ccc21,CCn1c2ccccc2c3c1ccc(c3)Nc4nc(cs4)C(=O)N,CCN1C=2C=CC=CC2C3=C1C=CC(=C3)NC4=NC(=CS4)C(=O)N,-6.0457575
HIJLVSVTJNDDHT-UHFFFAOYSA-N,"7-chloro-5-(2-chlorophenyl)-2-oxo-2,3-dihydro-1H-1,4-benzodiazepin-4-ium-4-olate",O=C1CN(O)C(c2ccccc2Cl)=c2cc(Cl)ccc2=N1,c1ccc(c(c1)C2=c3cc(ccc3=NC(=O)CN2O)Cl)Cl,ON1CC(=O)N=C2C=CC(=CC2=C1C=3C=CC=CC3Cl)Cl,-4.465166411
HIJYJXGWKHLZPA-UHFFFAOYSA-N,N-Methoxy-4-nitrobenzamide,CONC(=O)c1ccc([N+](=O)[O-])cc1,CONC(=O)c1ccc(cc1)[N+](=O)[O-],CONC(=O)C1=CC=C(C=C1)[N+](=O)[O-],-2.2815
HILAYQUKKYWPJW-UHFFFAOYSA-N,Dodine,CCCCCCCCCCCCNC(=N)N,CCCCCCCCCCCCNC(=N)N,CCCCCCCCCCCCN=C(N)N,-2.659
HINHDYLOFMPXSV-UHFFFAOYSA-N,,NC(=O)CNc1nc(SCc2cccc(F)c2F)nc2nc(N)sc12,c1cc(c(c(c1)F)F)CSc2nc3c(c(n2)NCC(=O)N)sc(n3)N,O=C(N)CNC=1N=C(N=C2C1SC(=N2)N)SCC=3C=CC=C(C3F)F,-4.6282924
HINJNZFCMLSBCI-UHFFFAOYSA-N,,CN(C)C(=O)C(O)C(Cc1ccccc1)NC(=O)c1cc2cc(Cl)ccc2[nH]1,CN(C)C(=O)C(C(Cc1ccccc1)NC(=O)c2cc3cc(ccc3[nH]2)Cl)O,CN(C)C(=O)C(O)C(CC=1C=CC=CC1)NC(=O)C2=CC=3C=C(C=CC3N2)Cl,-4.6382722
HIOMOLUQMPMYMG-UHFFFAOYSA-N,,COc1cc2ncnc(Nc3cccc(Cl)c3F)c2cc1OCC1CCN(C)CC1,CN1CCC(CC1)COc2cc3c(cc2OC)ncnc3Nc4cccc(c4F)Cl,COC=1C=C2N=CN=C(C2=CC1OCC3CCN(CC3)C)NC=4C=CC=C(C4F)Cl,-4.8239087
HIPHYBWWZWRZOV-UHFFFAOYSA-N,4-isothiocyanatophenol,Oc1ccc(N=C=S)cc1,c1cc(ccc1N=C=S)O,OC1=CC=C(C=C1)N=C=S,-2.67
HITCSVYRZQBVKG-UHFFFAOYSA-N,,O=C(CCc1ccncc1)Nc1ccc2c(c1)Cc1ccccc1-2,c1ccc-2c(c1)Cc3c2ccc(c3)NC(=O)CCc4ccncc4,O=C(CCC=1C=CN=CC1)NC=2C=CC3=C(C2)CC=4C3=CC=CC4,-6.0457575
HIUMQLUUARDUFV-UHFFFAOYSA-N,,Cc1ccc(NC(=O)c2cccc(N3CCCC3)c2)cc1NC(=O)c1cccc(OC2CCNCC2)c1,Cc1ccc(cc1NC(=O)c2cccc(c2)OC3CCNCC3)NC(=O)c4cccc(c4)N5CCCC5,CC=1C=CC(=CC1NC(=O)C=2C=CC=C(C2)OC3CCNCC3)NC(=O)C=4C=CC=C(C4)N5CCCC5,-4.8860566
HIVYILZWUCPCFP-UHFFFAOYSA-N,,NC(=O)Nc1sc(-c2ccc(OC3CCOCC3)nc2)cc1C(N)=O,c1cc(ncc1c2cc(c(s2)NC(=O)N)C(=O)N)OC3CCOCC3,NC(=O)NC=1SC(=CC1C(=O)N)C=2C=CC(=NC2)OC3CCOCC3,-4.8153086
HJBDVFFKADBHHV-UHFFFAOYSA-N,"1,8,15-Triazacycloheneicosane-2,9,16-trione",O=C1CCCCCNC(=O)CCCCCNC(=O)CCCCCN1,C1CCC(=O)NCCCCCC(=O)NCCCCCC(=O)NCC1,N1C(=O)CCCCCNC(=O)CCCCCNC(=O)CCCCC1,-1.5619999999999998
HJCNTJIMUWQMSA-UHFFFAOYSA-N,"2,3,4',6-TETRACHLORODIPHENYL  ETHER",Clc1ccc(Oc2c(Cl)ccc(Cl)c2Cl)cc1,c1cc(ccc1Oc2c(ccc(c2Cl)Cl)Cl)Cl,ClC1=CC=C(C=C1)OC2=C(C=CC(=C2Cl)Cl)Cl,-6.64
HJEGHEJPSUDCNP-UHFFFAOYSA-N,,CC(C)(C)OC(=O)n1cccc1-c1cc(C(N)=O)c(NC(N)=O)s1,CC(C)(C)OC(=O)n1cccc1c2cc(c(s2)NC(=O)N)C(=O)N,CC(C)(C)OC(=O)N1C=CC=C1C2=CC(=C(S2)NC(=O)N)C(=O)N,-5.1487417
HJEINPVZRDJRBY-UHFFFAOYSA-N,"2,4-DES",O=S(=O)(O)OCCOc1ccc(Cl)cc1Cl,c1cc(c(cc1Cl)Cl)OCCOS(=O)(=O)O,S(=O)(=O)(OCCOC1=C(C=C(C=C1)Cl)Cl)O,-0.06
HJHUXWBTVVFLQI-UHFFFAOYSA-N,tributyl(methyl)azanium chloride,CCCC[N+](C)(CCCC)CCCC,CCCC[N+](C)(CCCC)CCCC,CCCC[N+](C)(CCCC)CCCC,0.485080978
HJICBVMRKHYRDH-UHFFFAOYSA-N,"Dibromopyranthrene-8,16-dione",O=c1c2ccccc2c2cc3ccc4c(=O)c5c(Br)c(Br)ccc5c5cc6ccc1c2c6c3c45,c1ccc2c(c1)c3cc4ccc5c6c4c7c3c(c2=O)ccc7cc6c8ccc(c(c8c5=O)Br)Br,BrC=1C=CC=2C=3C=C4C=CC=5C(=O)C6=CC=CC=C6C=7C5C4=C8C3C(=CC=C8C7)C(=O)C2C1Br,-4.450213859
HJIUPFPIEBPYIE-UHFFFAOYSA-N,crimidine,Cc1cc(N(C)C)nc(Cl)n1,Cc1cc(nc(n1)Cl)N(C)C,N=1C(=CC(=NC1Cl)C)N(C)C,-1.261
HJJKSUVYCQAMBG-UHFFFAOYSA-N,"1,2,3,5-TETRACHLORONAPHTHALENE",Clc1cc2c(Cl)cccc2c(Cl)c1Cl,c1cc2c(cc(c(c2Cl)Cl)Cl)c(c1)Cl,ClC=1C=CC=C2C1C=C(C(=C2Cl)Cl)Cl,-7.857
HJJMSUKOUPGOSF-UHFFFAOYSA-N,,CCCCc1nc2ccccc2n1Cc1ccc(-c2ccn(Cc3ccccc3C(=O)O)n2)cc1,CCCCc1nc2ccccc2n1Cc3ccc(cc3)c4ccn(n4)Cc5ccccc5C(=O)O,CCCCC1=NC=2C=CC=CC2N1CC=3C=CC(=CC3)C=4C=CN(N4)CC=5C=CC=CC5C(=O)O,-4.1804561
HJJPJSXJAXAIPN-UHFFFAOYSA-N,arecoline,COC(=O)C1=CCCN(C)C1,CN1CCC=C(C1)C(=O)OC,O=C(C1=CCCN(C1)C)OC,0.80955
HJJVPARKXDDIQD-UHFFFAOYSA-N,Bromuconazole,Clc1ccc(C2(Cn3cncn3)CC(Br)CO2)c(Cl)c1,c1cc(c(cc1Cl)Cl)C2(CC(CO2)Br)Cn3cncn3,ClC=1C=CC(=C(C1)Cl)C2(CC(CO2)Br)CN3C=NC=N3,-3.87725
HJLSLZFTEKNLFI-UHFFFAOYSA-N,tinidazole,CCS(=O)(=O)CCn1c([N+](=O)[O-])cnc1C,CCS(=O)(=O)CCn1c(ncc1[N+](=O)[O-])C,CCS(=O)(=O)CCN1C(=NC=C1[N+](=O)[O-])C,-1.0921414329999999
HJNNJCKPCLIHOB-UHFFFAOYSA-N,,N=C(N)c1ccc2cc(OC(=O)c3ccc(OCC(=O)O)cc3)ccc2c1,c1cc(ccc1C(=O)Oc2ccc3cc(ccc3c2)C(=N)N)OCC(=O)O,NC(=N)C=1C=CC=2C=C(C=CC2C1)OC(=O)C=3C=CC(=CC3)OCC(=O)O,-6.1870866
HJOVHMDZYOCNQW-UHFFFAOYSA-N,isophorone,CC1=CC(=O)CC(C)(C)C1,CC1=CC(=O)CC(C1)(C)C,O=C1C=C(CC(C1)(C)C)C,-1.06
HJQCXQXWUDAPBT-UHFFFAOYSA-N,"KETOPROFEN,  ESTER 4C; N-METHYL-N-[2-(2'-(3''-BENZOYL-PHENYL)PROPANOYLOXY)ACETYL]GLYCINEAMIDE",CC(C(=O)OCC(=O)N(C)CC(N)=O)c1cccc(C(=O)c2ccccc2)c1,CC(c1cccc(c1)C(=O)c2ccccc2)C(=O)OCC(=O)N(C)CC(=O)N,CC(C(=O)OCC(=O)N(C)CC(=O)N)C1=CC(=CC=C1)C(=O)C2=CC=CC=C2,-2.42
HJRJRUMKQCMYDL-UHFFFAOYSA-N,"benzene, 2-chloro-1,3,5-trinitro-",O=[N+]([O-])c1cc([N+](=O)[O-])c(Cl)c([N+](=O)[O-])c1,c1c(cc(c(c1[N+](=O)[O-])Cl)[N+](=O)[O-])[N+](=O)[O-],O=[N+]([O-])C=1C=C(C(=C(C1)[N+](=O)[O-])Cl)[N+](=O)[O-],-2.6689999999999996
HJRMLUJAUWTDNB-UHFFFAOYSA-N,,Cc1ccc(NC(=O)c2ccnc(N3CCOCC3)c2)cc1NC(=O)c1cccc(OC2CCN(C)CC2)c1,Cc1ccc(cc1NC(=O)c2cccc(c2)OC3CCN(CC3)C)NC(=O)c4ccnc(c4)N5CCOCC5,CN1CCC(CC1)OC=2C=CC=C(C2)C(=O)NC=3C=C(C=CC3C)NC(=O)C=4C=CN=C(C4)N5CCOCC5,-2.9586072999999997
HJRYVXJYTOOIHN-UHFFFAOYSA-N,,COc1cc2c(NC(=O)Nc3c(C)cccc3C)ncnc2cc1OCCCN1CCN(C)CC1,Cc1cccc(c1NC(=O)Nc2c3cc(c(cc3ncn2)OCCCN4CCN(CC4)C)OC)C,COC=1C=C2C(=NC=NC2=CC1OCCCN3CCN(CC3)C)NC(=O)NC=4C(=CC=CC4C)C,-4.427461900000001
HJSPWKGEPDZNLK-UHFFFAOYSA-N,4-HYDROXYDIPHENYLMETHANE,Oc1ccc(Cc2ccccc2)cc1,c1ccc(cc1)Cc2ccc(cc2)O,OC=1C=CC(=CC1)CC=2C=CC=CC2,-3.40095
HJSWCTFCBSIMDJ-UHFFFAOYSA-N,,CCN(CC)C(=O)Nc1ccc2c(c1)c1ccccc1n2CC,CCn1c2ccccc2c3c1ccc(c3)NC(=O)N(CC)CC,CCN(CC)C(=O)NC=1C=CC=2N(C=3C=CC=CC3C2C1)CC,-5.6777807000000005
HJUFTIJOISQSKQ-UHFFFAOYSA-N,Fenoxycarb,CCOC(=O)NCCOc1ccc(Oc2ccccc2)cc1,CCOC(=O)NCCOc1ccc(cc1)Oc2ccccc2,O=C(OCC)NCCOC=1C=CC(=CC1)OC=2C=CC=CC2,-4.7009
HJUOUZOJKPIETD-UHFFFAOYSA-N,"D-Xylose, (aminocarbonyl)hydrazone",NC(=O)N/N=C/[C@H](O)[C@@H](O)[C@H](O)CO,C([C@H]([C@@H]([C@H](/C=N/NC(=O)N)O)O)O)O,O=C(N)N/N=C/C(O)C(O)C(O)CO,-0.1288
HJWLWNLAIBFKDO-UHFFFAOYSA-N,ITANOXONE,C=C(CC(=O)c1ccc(-c2ccccc2Cl)cc1)C(=O)O,C=C(CC(=O)c1ccc(cc1)c2ccccc2Cl)C(=O)O,OC(=O)C(=C)CC(=O)C1=CC=C(C=C1)C2=CC=CC=C2Cl,-3.2
HJXKSWLLTIXTRW-UHFFFAOYSA-N,,CN1CCN(CCCNC(=O)/C=C/c2cc3ncnc(NC(=O)Nc4c(Cl)cccc4Cl)c3s2)CC1,CN1CCN(CC1)CCCNC(=O)/C=C/c2cc3c(s2)c(ncn3)NC(=O)Nc4c(cccc4Cl)Cl,CN1CCN(CC1)CCCNC(=O)/C=C/C2=CC=3N=CN=C(C3S2)NC(=O)NC=4C(=CC=CC4Cl)Cl,-3.5214335
HKAMKLBXTLTVCN-UHFFFAOYSA-N,SIMETONE,CCNc1nc(NCC)nc(OC)n1,CCNc1nc(nc(n1)OC)NCC,N1=C(N=C(N=C1NCC)OC)NCC,-1.7899
HKCXKNGHGLCFHK-UHFFFAOYSA-N,2-methoxypurine,COc1ncc2[nH]cnc2n1,COc1ncc2c(n1)nc[nH]2,N=1C(=NC2=C(C1)N=CN2)OC,-1.47
HKDLNTKNLJPAIY-UHFFFAOYSA-N,RTI 10,CC(=O)C1(O)CCC2C3CCC4=CC(=O)CCC4=C3C(c3ccc(N(C)C)cc3)CC21C,CC(=O)C1(CCC2C1(CC(C3=C4CCC(=O)C=C4CCC23)c5ccc(cc5)N(C)C)C)O,OC1(C2(C(C3C(=C4C(=CC(=O)CC4)CC3)C(C2)C5=CC=C(C=C5)N(C)C)CC1)C)C(=O)C,-3.67
HKFHIZASFFTQOK-UHFFFAOYSA-N,"4-Pyrimidinecarboxamide, 1,2,3,6-tetrahydro-2,6-",NC(=O)c1cc(=O)[nH]c(=O)[nH]1,c1c([nH]c(=O)[nH]c1=O)C(=O)N,NC(=O)C1=CC(=O)NC(=O)N1,-2.492
HKIOYBQGHSTUDB-UHFFFAOYSA-N,folpet; n-(trichloromethylthio)phthalimide,O=C1c2ccccc2C(=O)N1SC(Cl)(Cl)Cl,c1ccc2c(c1)C(=O)N(C2=O)SC(Cl)(Cl)Cl,N1(C(=O)C=2C=CC=CC2C1=O)SC(Cl)(Cl)Cl,-5.569
HKJCELUUIFFSIN-UHFFFAOYSA-N,"5-Bromo-1,2,3-trifluorobenzene",Fc1cc(Br)cc(F)c1F,c1c(cc(c(c1F)F)F)Br,FC=1C=C(C=C(C1F)F)Br,-3.210148968
HKJOYARIOKGODS-UHFFFAOYSA-N,"1,8,15-Triazacycloheneicosane-2,9,16-trione",NCCCCCC(=O)NCCCCCC(=O)NCCCCCC=O,C(CCC=O)CCNC(=O)CCCCCNC(=O)CCCCCN,C(=O)(NCCCCCC=O)CCCCCNC(=O)CCCCCN,-1.565
HKJYSULXWKWNNW-UHFFFAOYSA-N,,COc1cc2c(Nc3ccc(F)c(Cl)c3)ncnc2cc1OCCCn1cccn1,COc1cc2c(cc1OCCCn3cccn3)ncnc2Nc4ccc(c(c4)Cl)F,COC=1C=C2C(=NC=NC2=CC1OCCCN3C=CC=N3)NC=4C=CC(=C(C4)Cl)F,-5.9586073
HKJZNBVOUYUSFJ-UHFFFAOYSA-N,,CCNC(=O)N1CCN(c2ccc(S(=O)(=O)c3ccc(NC(=O)C(C)(O)C(F)(F)F)c(Cl)c3)cc2)CC1,CCNC(=O)N1CCN(CC1)c2ccc(cc2)S(=O)(=O)c3ccc(c(c3)Cl)NC(=O)C(C)(C(F)(F)F)O,CCNC(=O)N1CCN(CC1)C=2C=CC(=CC2)S(=O)(=O)C=3C=CC(=C(C3)Cl)NC(=O)C(C)(O)C(F)(F)F,-5.075720700000001
HKMOVIVJEFRPEK-UHFFFAOYSA-N,,Cc1cc(Nc2nc(Nc3ccc(Oc4cccnc4)nc3)ncc2Br)[nH]n1,Cc1cc([nH]n1)Nc2c(cnc(n2)Nc3ccc(nc3)Oc4cccnc4)Br,CC=1C=C(NN1)NC=2N=C(N=CC2Br)NC=3C=CC(=NC3)OC=4C=CC=NC4,-6.3187587999999995
HKMTVMBEALTRRR-UHFFFAOYSA-N,Benzo[a]fluorene,c1ccc2c(c1)Cc1c-2ccc2ccccc12,c1ccc2c(c1)ccc-3c2Cc4c3cccc4,C=12C=3C=CC=CC3C=CC1C4=CC=CC=C4C2,-6.68
HKNLDLLNOSOANE-UHFFFAOYSA-N,,CCn1c(C)c(Cl)c2cc(NC(=O)CCc3ccncc3)ccc21,CCn1c(c(c2c1ccc(c2)NC(=O)CCc3ccncc3)Cl)C,CCN1C(=C(C2=C1C=CC(=C2)NC(=O)CCC=3C=CN=CC3)Cl)C,-5.4814861
HKPHPIREJKHECO-UHFFFAOYSA-N,"N-(Butoxymethyl)-2-chloro-N-(2,6-diethylphenyl)acetamide",CCCCOCN(C(=O)CCl)c1c(CC)cccc1CC,CCCCOCN(c1c(cccc1CC)CC)C(=O)CCl,O=C(CCl)N(C1=C(C=CC=C1CC)CC)COCCCC,-4.19
HKQZHXBBXWUPSB-UHFFFAOYSA-N,,O=C(COc1ccc(C(=O)O)cc1)COc1ccc(-c2ccc(Br)cc2)cc1,c1cc(ccc1c2ccc(cc2)Br)OCC(=O)COc3ccc(cc3)C(=O)O,O=C(COC=1C=CC(=CC1)C(=O)O)COC=2C=CC(=CC2)C=3C=CC(=CC3)Br,-5.3659626
HKRHJEFEOYVEAV-UHFFFAOYSA-N,,COc1ccc2nccc(Nc3ccc(C)c(OC)c3)c2c1,Cc1ccc(cc1OC)Nc2ccnc3c2cc(cc3)OC,COC=1C=CC=2N=CC=C(C2C1)NC=3C=CC(=C(C3)OC)C,-5.0584886
HKTCLPBBJDIBGF-UHFFFAOYSA-N,ISOPROPYLBIPHENYL,CC(C)c1ccccc1-c1ccccc1,CC(C)c1ccccc1c2ccccc2,C(C=1C(=CC=CC1)C2=CC=CC=C2)(C)C,-5.992000000000001
HKTCSEFOSVTSQV-UHFFFAOYSA-N,,Nc1nnc(Cc2ccccc2)s1,c1ccc(cc1)Cc2nnc(s2)N,NC1=NN=C(S1)CC=2C=CC=CC2,-2.9208187999999997
HKTSLDUAGCAISP-UHFFFAOYSA-N,"Ethyl N,N-diphenylcarbamate",CCOC(=O)N(c1ccccc1)c1ccccc1,CCOC(=O)N(c1ccccc1)c2ccccc2,CCOC(=O)N(C=1C=CC=CC1)C=2C=CC=CC2,-3.96911978
HKTVWDAZRUQLMZ-UHFFFAOYSA-N,,COc1cc2ncnc(Nc3ccc(NS(=O)(=O)c4ccccc4)c(Cl)c3)c2cc1OC,COc1cc2c(cc1OC)ncnc2Nc3ccc(c(c3)Cl)NS(=O)(=O)c4ccccc4,COC=1C=C2N=CN=C(C2=CC1OC)NC=3C=CC(=C(C3)Cl)NS(=O)(=O)C=4C=CC=CC4,-5.7447275
HKVLKHUHWGFMRN-UHFFFAOYSA-N,,COc1cc2c(c(OC)c1OC)-c1ccc(OC(=O)c3ccc(CN(CCO)CCO)cc3)cc1C(NC(C)=O)CC2,CC(=O)NC1CCc2cc(c(c(c2-c3c1cc(cc3)OC(=O)c4ccc(cc4)CN(CCO)CCO)OC)OC)OC,COC=1C=C2C(=C(C1OC)OC)C3=C(C=C(C=C3)OC(=O)C=4C=CC(=CC4)CN(CCO)CCO)C(CC2)NC(=O)C,-2.8860566000000003
HKWYQWIBPAFXEK-UHFFFAOYSA-N,,Nc1ccc2cccc(Nc3ncccn3)c2n1,c1cc2ccc(nc2c(c1)Nc3ncccn3)N,NC=1C=CC=2C=CC=C(C2N1)NC=3N=CC=CN3,-4.5686362
HKWYRLYHYBFHLL-UHFFFAOYSA-N,,NC(=O)Nc1cc(-c2ccccc2)sc1C(N)=O,c1ccc(cc1)c2cc(c(s2)C(=O)N)NC(=O)N,NC(=O)NC=1C=C(SC1C(=O)N)C=2C=CC=CC2,-4.7695511
HKZYZCJKFXDXDT-UHFFFAOYSA-N,,COc1cc2c(Nc3nc(C)c(CC(=O)Nc4ccccc4)s3)ncnc2cc1OCCCN1CCOCC1,Cc1c(sc(n1)Nc2c3cc(c(cc3ncn2)OCCCN4CCOCC4)OC)CC(=O)Nc5ccccc5,COC=1C=C2C(=NC=NC2=CC1OCCCN3CCOCC3)NC4=NC(=C(S4)CC(=O)NC=5C=CC=CC5)C,-6.387216099999999
HLBFIZRSJWZQTR-UHFFFAOYSA-N,,CC(O)(C(=O)Nc1ccc(S(=O)(=O)N2CCN(S(C)(=O)=O)CC2)cc1Cl)C(F)(F)F,CC(C(=O)Nc1ccc(cc1Cl)S(=O)(=O)N2CCN(CC2)S(=O)(=O)C)(C(F)(F)F)O,CC(O)(C(=O)NC=1C=CC(=CC1Cl)S(=O)(=O)N2CCN(CC2)S(=O)(=O)C)C(F)(F)F,-4.455932
HLBPOYVRLSXWJJ-UHFFFAOYSA-N,beta-Peltatin,COc1cc([C@@H]2c3cc4c(c(O)c3C[C@H]3COC(=O)[C@@H]32)OCO4)cc(OC)c1OC,COc1cc(cc(c1OC)OC)[C@@H]2c3cc4c(c(c3C[C@@H]5[C@@H]2C(=O)OC5)O)OCO4,COC=1C=C(C=C(C1OC)OC)[C@H]2[C@@H]3[C@H](COC3=O)CC4=C2C=C5C(=C4O)OCO5,-4.503
HLBQGOCNVGPIOX-UHFFFAOYSA-N,"BENZENESULFONAMIDE, 4-[(4-HYDROXYBUTYL)SULFONYL]",NS(=O)(=O)c1ccc(S(=O)(=O)CCCCO)cc1,c1cc(ccc1S(=O)(=O)CCCCO)S(=O)(=O)N,S(=O)(=O)(C=1C=CC(=CC1)S(=O)(=O)CCCCO)N,-2.145
HLBZWYXLQJQBKU-UHFFFAOYSA-N,"4,4'-disulfanediyldimorpholine",C1CN(SSN2CCOCC2)CCO1,C1COCCN1SSN2CCOCC2,C1CN(CCO1)SSN2CCOCC2,-3.2598171519999997
HLCLCIHQZZSHDC-UHFFFAOYSA-N,,Cc1nc2ccc(Cl)cn2c1-c1ccnc(N)n1,Cc1c(n2cc(ccc2n1)Cl)c3ccnc(n3)N,CC=1N=C2C=CC(=CN2C1C=3C=CN=C(N3)N)Cl,-3.1191864
HLCYDXRGEPUIOB-UHFFFAOYSA-N,N1-(1-BENZYL-2-OXOPYRIMIDIN-4-YL)SULFANILAMIDE;  1-Benzyl-4-sulfapyrimidin-2-one,Nc1ccc(S(=O)(=O)Nc2ccn(Cc3ccccc3)c(=O)n2)cc1,c1ccc(cc1)Cn2ccc(nc2=O)NS(=O)(=O)c3ccc(cc3)N,NC1=CC=C(C=C1)S(=O)(=O)NC2=NC(=O)N(C=C2)CC3=CC=CC=C3,-4.8
HLFSDGLLUJUHTE-UHFFFAOYSA-N,,c1ccc(C2CN3CCSC3=N2)cc1,c1ccc(cc1)C2CN3CCSC3=N2,C1(=CC=CC=C1)C2CN3CCSC3=N2,-2.261
HLGLZIHUZLGLGS-UHFFFAOYSA-N,propyl 3-bromo-4-hydroxybenzoate,CCCOC(=O)c1ccc(O)c(Br)c1,CCCOC(=O)c1ccc(c(c1)Br)O,CCCOC(=O)C1=CC(=C(C=C1)O)Br,-3.51
HLHYAJBAYHSTLK-UHFFFAOYSA-N,,Cc1ccc2c(c1)Oc1ccc(NC(=O)Cc3ccccc3)cc1C(=O)N2C,Cc1ccc2c(c1)Oc3ccc(cc3C(=O)N2C)NC(=O)Cc4ccccc4,CN1C(=O)C=2C=C(C=CC2OC3=C1C=CC(=C3)C)NC(=O)CC=4C=CC=CC4,-6.7447275
HLISYGBBLOOIQF-UHFFFAOYSA-N,sodium 3-[(E)-2-[4-(phenylamino)phenyl]diazen-1-yl]benzene-1-sulfonate,O=S(=O)(O)c1cccc(/N=N/c2ccc(Nc3ccccc3)cc2)c1,c1ccc(cc1)Nc2ccc(cc2)/N=N/c3cccc(c3)S(=O)(=O)O,OS(=O)(=O)C=1C=CC=C(C1)/N=N/C=2C=CC(=CC2)NC=3C=CC=CC3,-1.204843046
HLKXYZVTANABHZ-UHFFFAOYSA-N,"DL-Aspartic acid, N-(aminocarbonyl)-",NC(=O)NC(CC(=O)O)C(=O)O,C(C(C(=O)O)NC(=O)N)C(=O)O,NC(=O)NC(C(=O)O)CC(=O)O,-1.6780000000000002
HLLLHNWYBTWBRC-UHFFFAOYSA-N,,COc1cc2ncc(C#N)c(Nc3ccc(Oc4ccccc4OC(C)(C)C(=O)NCC(=O)NC(C)C)cc3)c2cc1NC(C)=O,CC(C)NC(=O)CNC(=O)C(C)(C)Oc1ccccc1Oc2ccc(cc2)Nc3c4cc(c(cc4ncc3C#N)OC)NC(=O)C,COC=1C=C2N=CC(=C(C2=CC1NC(=O)C)NC=3C=CC(=CC3)OC=4C=CC=CC4OC(C)(C)C(=O)NCC(=O)NC(C)C)C#N,-6.1706962
HLMIVULQFMULRM-UHFFFAOYSA-N,[2-(cyclohexyloxy)ethyl]benzene,c1ccc(CCOC2CCCCC2)cc1,c1ccc(cc1)CCOC2CCCCC2,C1CCC(CC1)OCCC=2C=CC=CC2,-2.4180450280000003
HLMZWQHLFYNUTO-UHFFFAOYSA-N,,CCCNc1nc(SCCC)nc2c1nnn2C1CC(C(=O)NC(CCC(N)=O)C(=O)NC)C(O)C1O,CCCNc1c2c(nc(n1)SCCC)n(nn2)C3CC(C(C3O)O)C(=O)NC(CCC(=O)N)C(=O)NC,O=C(N)CCC(C(=O)NC)NC(=O)C1CC(C(C1O)O)N2N=NC=3C2=NC(=NC3NCCC)SCCC,-6.0315628
HLOFQXUITYKUJV-UHFFFAOYSA-N,,CCN(CC)CCNc1ccc(C(=O)Nc2cc(NC(=O)c3ccnc(N4CCOCC4)c3)ccc2C)cn1,CCN(CC)CCNc1ccc(cn1)C(=O)Nc2cc(ccc2C)NC(=O)c3ccnc(c3)N4CCOCC4,CCN(CC)CCNC=1C=CC(=CN1)C(=O)NC=2C=C(C=CC2C)NC(=O)C=3C=CN=C(C3)N4CCOCC4,-3.1079054
HLQDGCWIOSOMDP-UHFFFAOYSA-N,tetrachlorobiphenyl,Clc1cc(-c2ccccc2)c(Cl)c(Cl)c1Cl,c1ccc(cc1)c2cc(c(c(c2Cl)Cl)Cl)Cl,ClC=1C=C(C(=C(C1Cl)Cl)Cl)C=2C=CC=CC2,-7.16
HLQLFPGYUIPDHN-UHFFFAOYSA-N,,COc1cc2c(Nc3cc(CC(=O)Nc4ccccc4)[nH]n3)ncnc2cc1OCCCN1CCOCC1,COc1cc2c(cc1OCCCN3CCOCC3)ncnc2Nc4cc([nH]n4)CC(=O)Nc5ccccc5,COC=1C=C2C(=NC=NC2=CC1OCCCN3CCOCC3)NC=4C=C(NN4)CC(=O)NC=5C=CC=CC5,-5.2441251
HLSMAPUQSFTYPM-UHFFFAOYSA-N,,COC1CCC2CCN(C)C(=O)C(C)N(C)C(=O)c3cccc(C#N)c3OCC1O2,CC1C(=O)N(CCC2CCC(C(O2)COc3c(cccc3C(=O)N1C)C#N)OC)C,COC1CCC2CCN(C(=O)C(N(C(=O)C3=CC=CC(=C3OCC1O2)C#N)C)C)C,-4.0
HLUCICHZHWJHLL-UHFFFAOYSA-N,Hematein,O=C1C=C2CC3(O)COc4c(ccc(O)c4O)C3=C2C=C1O,c1cc(c(c2c1C3=C4C=C(C(=O)C=C4CC3(CO2)O)O)O)O,OC=1C=CC2=C(C1O)OCC3(C2=C4C(=CC(=O)C(=C4)O)C3)O,-2.7
HLVCZTOFOWHIJZ-UHFFFAOYSA-N,4-[(4-hydroxyphenyl)diazenyl]benzoic acid,O=C(O)c1ccc(/N=N/c2ccc(O)cc2)cc1,c1cc(ccc1C(=O)O)/N=N/c2ccc(cc2)O,O=C(O)C1=CC=C(C=C1)/N=N/C2=CC=C(C=C2)O,-4.379
HLVGXGQCLASQJU-UHFFFAOYSA-N,"Benzamide, 3,4,5-trihydroxy-N-phenyl-",O=C(Nc1ccccc1)c1cc(O)c(O)c(O)c1,c1ccc(cc1)NC(=O)c2cc(c(c(c2)O)O)O,C(=O)(C1=CC(=C(C(=C1)O)O)O)NC2=CC=CC=C2,-2.089
HLVVDCMVZVIBKE-UHFFFAOYSA-N,,Cc1ccc(NC(=O)c2cc(F)cc(N3CCOCC3)c2)cc1NC(=O)c1cccc(CN2CCNCC2)c1,Cc1ccc(cc1NC(=O)c2cccc(c2)CN3CCNCC3)NC(=O)c4cc(cc(c4)F)N5CCOCC5,CC=1C=CC(=CC1NC(=O)C=2C=CC=C(C2)CN3CCNCC3)NC(=O)C=4C=C(C=C(C4)N5CCOCC5)F,-3.3098039
HLWVGQKSSIHUAX-UHFFFAOYSA-N,1-Acetylamino-3-isothiocyanatobenzene,CC(=O)Nc1cccc(N=C=S)c1,CC(=O)Nc1cccc(c1)N=C=S,CC(=O)NC1=CC=CC(=C1)N=C=S,-3.53
HLXRWTJXGMHOFN-UHFFFAOYSA-N,Verbenalin,COC(=O)C1=CO[C@@H](O[C@@H]2O[C@H](CO)[C@@H](O)[C@H](O)[C@H]2O)[C@@H]2[C@@H](C)CC(=O)[C@H]12,C[C@H]1CC(=O)[C@H]2[C@@H]1[C@@H](OC=C2C(=O)OC)O[C@H]3[C@@H]([C@H]([C@@H]([C@H](O3)CO)O)O)O,COC(=O)C1=CO[C@H]([C@H]2[C@@H]1C(=O)C[C@@H]2C)O[C@@H]3O[C@@H]([C@H]([C@@H]([C@H]3O)O)O)CO,-0.265
HLZKNKRTKFSKGZ-UHFFFAOYSA-N,tetradecan-1-ol,CCCCCCCCCCCCCCO,CCCCCCCCCCCCCCO,OCCCCCCCCCCCCCC,-5.952000000000001
HMBBOFXWBZGUKI-UHFFFAOYSA-N,,NCC(OCc1ccccc1)C(OCc1ccccc1)C(OCc1ccccc1)C(CN)OCc1ccccc1,c1ccc(cc1)COC(CN)C(C(C(CN)OCc2ccccc2)OCc3ccccc3)OCc4ccccc4,NCC(OCC=1C=CC=CC1)C(OCC=2C=CC=CC2)C(OCC=3C=CC=CC3)C(CN)OCC=4C=CC=CC4,-3.5900669
HMDOTBHCMSTMJG-UHFFFAOYSA-N,4-(BUTOXYCARBOXY)ACETANILIDE,CCCCOC(=O)Oc1ccc(NC(C)=O)cc1,CCCCOC(=O)Oc1ccc(cc1)NC(=O)C,CCCCOC(=O)OC1=CC=C(C=C1)NC(=O)C,-3.37
HMEYVGGHISAPJR-UHFFFAOYSA-N,rolitetracycline,CN(C)C1C(O)=C(C(=O)NCN2CCCC2)C(=O)C2(O)C(O)=C3C(=O)c4c(O)cccc4C(C)(O)C3CC12,CC1(c2cccc(c2C(=O)C3=C(C4(C(CC31)C(C(=C(C4=O)C(=O)NCN5CCCC5)O)N(C)C)O)O)O)O,CN(C1C2CC3C(=C(C2(C(=O)C(=C1O)C(=O)NCN4CCCC4)O)O)C(=O)C5=C(C=CC=C5O)C3(O)C)C,-1.42
HMFKFHLTUCJZJO-UHFFFAOYSA-N,"Sorbitan monolaurate, ethoxylated",CCCCCCCCCCCC(=O)OCCOCC(OCCO)C1OCC(OCCO)C1OCCO,CCCCCCCCCCCC(=O)OCCOCC(C1C(C(CO1)OCCO)OCCO)OCCO,CCCCCCCCCCCC(=O)OCCOCC(OCCO)C1OCC(C1OCCO)OCCO,-6.417101282000001
HMGCFJCNDADXNC-UHFFFAOYSA-N,Isopropyl (1-(4-methyl)phenylsulfonyl) cyclobuta,Cc1ccc(S(=O)(=O)C2(C(=O)OC(C)C)CCC2)cc1,Cc1ccc(cc1)S(=O)(=O)C2(CCC2)C(=O)OC(C)C,S(=O)(=O)(C1(CCC1)C(=O)OC(C)C)C=2C=CC(=CC2)C,-3.3405
HMGZBAUPBIYGHD-UHFFFAOYSA-N,,Cc1ccc(NC(=O)c2cc(F)cc(N3CCOCC3)c2)cc1NC(=O)c1ccc(O)nc1,Cc1ccc(cc1NC(=O)c2ccc(nc2)O)NC(=O)c3cc(cc(c3)F)N4CCOCC4,CC=1C=CC(=CC1NC(=O)C=2C=CC(=NC2)O)NC(=O)C=3C=C(C=C(C3)N4CCOCC4)F,-6.0
HMHNPBXGEXSGLR-UHFFFAOYSA-N,"disodium 1-amino-4-(4-amino-9,10-dioxo-3-sulfonato-9,10-dihydroanthracen-1-yl)-9,10-dioxo-9,10-dihydroanthracene-2-sulfonate",Nc1c(S(=O)(=O)O)cc(-c2cc(S(=O)(=O)O)c(N)c3c2C(=O)c2ccccc2C3=O)c2c1C(=O)c1ccccc1C2=O,c1ccc2c(c1)C(=O)c3c(cc(c(c3C2=O)N)S(=O)(=O)O)c4cc(c(c5c4C(=O)c6ccccc6C5=O)N)S(=O)(=O)O,NC=1C2=C(C(=CC1S(=O)(=O)O)C=3C=C(C(=C4C3C(=O)C5=C(C=CC=C5)C4=O)N)S(=O)(=O)O)C(=O)C6=C(C=CC=C6)C2=O,-2.030090027
HMIBKHHNXANVHR-UHFFFAOYSA-N,Fenothiocarb,CN(C)C(=O)SCCCCOc1ccccc1,CN(C)C(=O)SCCCCOc1ccccc1,S(C(=O)N(C)C)CCCCOC=1C=CC=CC1,-3.927
HMILXGPZMQDAKE-UHFFFAOYSA-N,"heptyl 3-[3-(2H-1,2,3-benzotriazol-2-yl)-5-tert-butyl-4-hydroxyphenyl]propanoate nonyl 3-[3-(2H-1,2,3-benzotriazol-2-yl)-5-tert-butyl-4-hydroxyphenyl]propanoate octyl 3-[3-(2H-1,2,3-benzotriazol-2-yl)-5-tert-butyl-4-hydroxyphenyl]propanoate",CCC(C)CCCOC(=O)CCc1cc(-n2nc3ccccc3n2)c(O)c(C(C)(C)C)c1,CCC(C)CCCOC(=O)CCc1cc(c(c(c1)n2nc3ccccc3n2)O)C(C)(C)C,CCC(C)CCCOC(=O)CCC=1C=C(C(=C(C1)C(C)(C)C)O)N2N=C3C=CC=CC3=N2,-6.16397009
HMIVEKOLCIBGJR-UHFFFAOYSA-N,,COc1ccc2sc(S(C)(=O)=O)nc2c1,COc1ccc2c(c1)nc(s2)S(=O)(=O)C,COC=1C=CC=2SC(=NC2C1)S(=O)(=O)C,-2.8239087000000005
HMJIYCCIJYRONP-UHFFFAOYSA-N,isradipine,COC(=O)C1=C(C)NC(C)=C(C(=O)OC(C)C)C1c1cccc2nonc12,CC1=C(C(C(=C(N1)C)C(=O)OC(C)C)c2cccc3c2non3)C(=O)OC,CC1=C(C(C(=C(N1)C)C(=O)OC(C)C)C2=CC=CC=3C2=NON3)C(=O)OC,-4.666740218999999
HMJLVFSNYMRUJV-UHFFFAOYSA-N,,COc1cc2c(Nc3ccc(Oc4nccs4)cc3)c(C#N)cnc2cc1OCCCNC1CC1,COc1cc2c(cc1OCCCNC3CC3)ncc(c2Nc4ccc(cc4)Oc5nccs5)C#N,COC=1C=C2C(=C(C=NC2=CC1OCCCNC3CC3)C#N)NC=4C=CC(=CC4)OC5=NC=CS5,-4.609444
HMKBHDBLXCCKGW-UHFFFAOYSA-N,2-Bromo-4-nitro-1-sulfanilamidobenzene;  2-Bromo-4-nitro-1-sulfabenzene,Nc1ccc(S(=O)(=O)Nc2ccc([N+](=O)[O-])cc2Br)cc1,c1cc(ccc1N)S(=O)(=O)Nc2ccc(cc2Br)[N+](=O)[O-],NC1=CC=C(C=C1)S(=O)(=O)NC2=CC=C(C=C2Br)[N+](=O)[O-],-4.78
HMKKIXGYKWDQSV-UHFFFAOYSA-N,(2E)-2-(phenylmethylidene)heptanal,CCCCC/C(C=O)=C/c1ccccc1,CCCCC/C(=C/c1ccccc1)/C=O,CCCCC/C(=C/C=1C=CC=CC1)/C=O,-3.0468292089999998
HMLBYHFZHKXWLG-UHFFFAOYSA-N,,CCS(=O)(=O)c1ccc(NC(=O)C(C)(O)C(F)(F)F)c(Cl)c1OC,CCS(=O)(=O)c1ccc(c(c1OC)Cl)NC(=O)C(C)(C(F)(F)F)O,CCS(=O)(=O)C=1C=CC(=C(C1OC)Cl)NC(=O)C(C)(O)C(F)(F)F,-4.229148
HMLHEAFHRZDDDY-UHFFFAOYSA-N,,O=C(NCc1ccc2c(ccn2Cc2ccccc2C(=O)O)c1)c1ccc(-c2ccccc2)cc1,c1ccc(cc1)c2ccc(cc2)C(=O)NCc3ccc4c(c3)ccn4Cc5ccccc5C(=O)O,OC(=O)C=1C=CC=CC1CN2C=CC3=C2C=CC(=C3)CNC(=O)C=4C=CC(=CC4)C=5C=CC=CC5,-4.4317983
HMMIQMIGJAIOAZ-UHFFFAOYSA-N,"5,8-dihydro-1H-pteridine-4,6,7-trione",O=c1[nH]c2nc[nH]c(=O)c2[nH]c1=O,c1[nH]c(=O)c2c(n1)[nH]c(=O)c(=O)[nH]2,O=C1NC=NC2=C1NC(=O)C(=O)N2,-3.69
HMMITNDFMJJHJS-UHFFFAOYSA-N,Probucol,CC(C)(Sc1c(C(C)(C)C)cc(O)cc1C(C)(C)C)Sc1c(C(C)(C)C)cc(O)cc1C(C)(C)C,CC(C)(C)c1cc(cc(c1SC(C)(C)Sc2c(cc(cc2C(C)(C)C)O)C(C)(C)C)C(C)(C)C)O,CC(C)(C)C1=CC(=CC(=C1SC(C)(C)SC2=C(C=C(C=C2C(C)(C)C)O)C(C)(C)C)C(C)(C)C)O,-8.17