inchikey,Name,SMILES_stand,SMILES,kekSmiles,logS
GPTONYMQFTZPKC-UHFFFAOYSA-N,sulfameter,COc1cnc(NS(=O)(=O)c2ccc(N)cc2)nc1,COc1cnc(nc1)NS(=O)(=O)c2ccc(cc2)N,S(=O)(=O)(NC=1N=CC(=CN1)OC)C=2C=CC(=CC2)N,-2.58
GPWXTTPSHZOIKO-UHFFFAOYSA-N,"2-[(E)-2-(2,5-dichloro-4-{2,5-dichloro-4-[(E)-2-{1-[(2,4-dimethylphenyl)carbamoyl]-2-oxopropyl}diazen-1-yl]phenyl}phenyl)diazen-1-yl]-N-(2,4-dimethylphenyl)-3-oxobutanamide",CC(=O)C(/N=N/c1cc(Cl)c(-c2cc(Cl)c(/N=N/C(C(C)=O)C(=O)Nc3ccc(C)cc3C)cc2Cl)cc1Cl)C(=O)Nc1ccc(C)cc1C,Cc1ccc(c(c1)C)NC(=O)C(C(=O)C)/N=N/c2cc(c(cc2Cl)c3cc(c(cc3Cl)/N=N/C(C(=O)C)C(=O)Nc4ccc(cc4C)C)Cl)Cl,CC(=O)C(/N=N/C=1C=C(C(=CC1Cl)C=2C=C(C(=CC2Cl)/N=N/C(C(=O)C)C(=O)NC=3C=CC(=CC3C)C)Cl)Cl)C(=O)NC=4C=CC(=CC4C)C,-8.462843524
GPXBXXGIAQBQNI-UHFFFAOYSA-N,vemurafenib,CCCS(=O)(=O)Nc1ccc(F)c(C(=O)c2c[nH]c3ncc(-c4ccc(Cl)cc4)cc23)c1F,CCCS(=O)(=O)Nc1ccc(c(c1F)C(=O)c2c[nH]c3c2cc(cn3)c4ccc(cc4)Cl)F,CCCS(=O)(=O)NC1=C(C(=C(C=C1)F)C(=O)C2=CNC3=C2C=C(C=N3)C4=CC=C(C=C4)Cl)F,-7.184975191
GPXLMGHLHQJAGZ-UHFFFAOYSA-N,nafcillin sodium,CCOc1ccc2ccccc2c1C(=O)N[C@@H]1C(=O)N2[C@@H](C(=O)O)C(C)(C)S[C@H]12,CCOc1ccc2ccccc2c1C(=O)N[C@H]3[C@@H]4N(C3=O)[C@H](C(S4)(C)C)C(=O)O,CCOC1=C(C2=CC=CC=C2C=C1)C(=O)N[C@H]3[C@@H]4N(C3=O)[C@H](C(S4)(C)C)C(=O)O,-0.9409744440000001
GPXLRLUVLMHHIK-UHFFFAOYSA-N,forchlorfenuron;  1-(2-chloro-4-pyridinyl)-3-phenylurea,O=C(Nc1ccccc1)Nc1ccnc(Cl)c1,c1ccc(cc1)NC(=O)Nc2ccnc(c2)Cl,ClC=1C=C(C=CN1)NC(=O)NC=2C=CC=CC2,-3.8028
GPYLCFQEKPUWLD-UHFFFAOYSA-N,Benzo[cd]indol-2(1H)-one,O=C1Nc2cccc3cccc1c23,c1cc2cccc3c2c(c1)C(=O)N3,O=C1NC=2C=CC=C3C2C1=CC=C3,-3.2548835489999997
GPZVAPMNBZHLMW-UHFFFAOYSA-N,,C#CCNS(=O)(=O)c1ccc(Nc2nccc(-c3cnc(C)n3C)n2)cc1,Cc1ncc(n1C)c2ccnc(n2)Nc3ccc(cc3)S(=O)(=O)NCC#C,CC1=NC=C(N1C)C=2C=CN=C(N2)NC=3C=CC(=CC3)S(=O)(=O)NCC#C,-4.5686362
GQACNASLZSJPSN-UHFFFAOYSA-N,N1-(4-Sulfamoylbenzyl)-N3-[(1-carboxy-2-hydroxy-2-phenyl)ethyl]thiourea; 2-(4-SULFAMOYLBENZYL)THIOUREIDO-3-HYDROXY-3-PHENYLPROPANOIC ACID,NS(=O)(=O)c1ccc(CNC(=S)NC(C(=O)O)C(O)c2ccccc2)cc1,c1ccc(cc1)C(C(C(=O)O)NC(=S)NCc2ccc(cc2)S(=O)(=O)N)O,NS(=O)(=O)C1=CC=C(C=C1)CNC(=S)NC(C(O)C2=CC=CC=C2)C(=O)O,-1.29
GQBHYWDCHSZDQU-UHFFFAOYSA-N,"4-(2,4,4-trimethylpentan-2-yl)-N-[4-(2,4,4-trimethylpentan-2-yl)phenyl]aniline",CC(C)(C)CC(C)(C)c1ccc(Nc2ccc(C(C)(C)CC(C)(C)C)cc2)cc1,CC(C)(C)CC(C)(C)c1ccc(cc1)Nc2ccc(cc2)C(C)(C)CC(C)(C)C,CC(C)(C)CC(C)(C)C=1C=CC(=CC1)NC=2C=CC(=CC2)C(C)(C)CC(C)(C)C,-6.595060093
GQBVHGLNSHPKPG-UHFFFAOYSA-N,1-[(2-tert-butylcyclohexyl)oxy]butan-2-ol,CCC(O)COC1CCCCC1C(C)(C)C,CCC(COC1CCCCC1C(C)(C)C)O,CCC(O)COC1CCCCC1C(C)(C)C,-3.698867131
GQERFZKIKUHBTO-UHFFFAOYSA-N,,CCN(CCO)CCCOc1cc2ncnc(Nc3cnc(OCc4cccc(Cl)c4)nc3)c2cc1OC,CCN(CCCOc1cc2c(cc1OC)c(ncn2)Nc3cnc(nc3)OCc4cccc(c4)Cl)CCO,CCN(CCO)CCCOC=1C=C2N=CN=C(C2=CC1OC)NC=3C=NC(=NC3)OCC=4C=CC=C(C4)Cl,-5.5199931
GQFAQGSQOWKLHH-UHFFFAOYSA-N,methyl 1-(toluene-4-sulfonyl)cyclopropyl-1-carboxylate; 1-(toluene-4-sulfonyl)cyclopropanecarboxylic acid methyl ester,COC(=O)C1(S(=O)(=O)c2ccc(C)cc2)CC1,Cc1ccc(cc1)S(=O)(=O)C2(CC2)C(=O)OC,COC(=O)C1(CC1)S(=O)(=O)C=2C=CC(=CC2)C,-2.88
GQFNXDDBTWIRFN-UHFFFAOYSA-N,,CNC(=N)c1ccc(C(=O)N2CCN(S(=O)(=O)c3ccc4cc(Br)ccc4c3)CC2)cc1,CNC(=N)c1ccc(cc1)C(=O)N2CCN(CC2)S(=O)(=O)c3ccc4cc(ccc4c3)Br,CNC(=N)C=1C=CC(=CC1)C(=O)N2CCN(CC2)S(=O)(=O)C=3C=CC=4C=C(C=CC4C3)Br,-3.0191062
GQIDSVPVVYHXAP-UHFFFAOYSA-N,dihexyl decanedioate,CCCCCCOC(=O)CCCCCCCCC(=O)OCCCCCC,CCCCCCOC(=O)CCCCCCCCC(=O)OCCCCCC,CCCCCCOC(=O)CCCCCCCCC(=O)OCCCCCC,-4.5695
GQIFMLRNMNBHSN-UHFFFAOYSA-N,,Cc1cc(Nc2ccnc3cc(Cl)ccc23)cc(C)c1S(=O)(=O)C[N+](=O)[O-],Cc1cc(cc(c1S(=O)(=O)C[N+](=O)[O-])C)Nc2ccnc3c2ccc(c3)Cl,CC=1C=C(C=C(C1S(=O)(=O)C[N+](=O)[O-])C)NC=2C=CN=C3C2C=CC(=C3)Cl,-5.60206
GQKRUMZWUHSLJF-UHFFFAOYSA-N,Chlorphoxim,CCOP(=S)(OCC)O/N=C(\C#N)c1ccccc1Cl,CCOP(=S)(OCC)O/N=C(\C#N)/c1ccccc1Cl,P(=S)(O/N=C(/C1=C(C=CC=C1)Cl)\C#N)(OCC)OCC,-5.292000000000001
GQMJDVQDIKHEQA-UHFFFAOYSA-N,,COc1ccc(Nc2ncc(Br)c(Nc3cc(C)n[nH]3)n2)cn1,Cc1cc([nH]n1)Nc2c(cnc(n2)Nc3ccc(nc3)OC)Br,COC=1C=CC(=CN1)NC=2N=CC(=C(N2)NC3=CC(=NN3)C)Br,-6.144480799999999
GQNUYOCQSJEZFY-UHFFFAOYSA-N,,O=C(CCc1ccncc1)Nc1ccc(C(=O)c2ccccc2)cc1,c1ccc(cc1)C(=O)c2ccc(cc2)NC(=O)CCc3ccncc3,O=C(CCC=1C=CN=CC1)NC=2C=CC(=CC2)C(=O)C=3C=CC=CC3,-5.091515
GQOHYQAHKDLXCV-UHFFFAOYSA-N,"2,3,6-Trichlorophenoxyacetic acid",O=C(O)COc1c(Cl)ccc(Cl)c1Cl,c1cc(c(c(c1Cl)OCC(=O)O)Cl)Cl,OC(=O)COC=1C(=CC=C(C1Cl)Cl)Cl,-2.62
GQOOTJLFAHNWHQ-UHFFFAOYSA-N,,C=CCN(C(=O)Nc1ccccc1)C1CCN(CCC(c2ccccc2)c2ccccc2)CC1,C=CCN(C1CCN(CC1)CCC(c2ccccc2)c3ccccc3)C(=O)Nc4ccccc4,C=CCN(C1CCN(CC1)CCC(C=2C=CC=CC2)C=3C=CC=CC3)C(=O)NC=4C=CC=CC4,-4.537602
GQRIANVFCIYOLQ-UHFFFAOYSA-N,,CCn1c(C)c(C)c2cc(NC(=O)CCn3ccnc3)ccc21,CCn1c(c(c2c1ccc(c2)NC(=O)CCn3ccnc3)C)C,CCN1C(=C(C2=C1C=CC(=C2)NC(=O)CCN3C=CN=C3)C)C,-3.5228787000000006
GQRVRLZVQCBKAM-UHFFFAOYSA-N,,CC(O)(C(=O)Nc1ccc(NS(=O)(=O)c2ccc(Cl)s2)cc1Cl)C(F)(F)F,CC(C(=O)Nc1ccc(cc1Cl)NS(=O)(=O)c2ccc(s2)Cl)(C(F)(F)F)O,CC(O)(C(=O)NC=1C=CC(=CC1Cl)NS(=O)(=O)C2=CC=C(S2)Cl)C(F)(F)F,-3.0087738999999996
GQSYNOBFTDVBDM-UHFFFAOYSA-N,"2-Pyrimidinecarboxamide, 4,6-dimethyl-",Cc1cc(C)nc(C(N)=O)n1,Cc1cc(nc(n1)C(=O)N)C,CC=1C=C(N=C(N1)C(=O)N)C,0.1216
GQYIWUVLTXOXAJ-UHFFFAOYSA-N,lomustine,O=NN(CCCl)C(=O)NC1CCCCC1,C1CCC(CC1)NC(=O)N(CCCl)N=O,ClCCN(N=O)C(=O)NC1CCCCC1,-3.37
GRAKHOCSWNZIPQ-UHFFFAOYSA-N,1-decylpiperidine,CCCCCCCCCCN1CCCCC1,CCCCCCCCCCN1CCCCC1,N1(CCCCC1)CCCCCCCCCC,-1.531
GRAYAHHKFWJYGT-UHFFFAOYSA-N,,COc1cc2ncnc(Nc3ccc(F)c(Cl)c3)c2cc1NC(=O)NCCN(C)C,CN(C)CCNC(=O)Nc1cc2c(cc1OC)ncnc2Nc3ccc(c(c3)Cl)F,COC=1C=C2N=CN=C(C2=CC1NC(=O)NCCN(C)C)NC=3C=CC(=C(C3)Cl)F,-4.1191864
GRBUOCQZCGPBRF-UHFFFAOYSA-N,,Cc1ccc(NC(=O)c2cccc(N3CCOCC3)c2)cc1NC(=O)c1cccc(OC2CCN(C)CC2)c1,Cc1ccc(cc1NC(=O)c2cccc(c2)OC3CCN(CC3)C)NC(=O)c4cccc(c4)N5CCOCC5,CN1CCC(CC1)OC=2C=CC=C(C2)C(=O)NC=3C=C(C=CC3C)NC(=O)C=4C=CC=C(C4)N5CCOCC5,-3.8860566
GRDXCFKBQWDAJH-UHFFFAOYSA-N,4-Acetamidobenzene-1-Sulfonyl Chloride,CC(=O)Nc1ccc(S(=O)(=O)Cl)cc1,CC(=O)Nc1ccc(cc1)S(=O)(=O)Cl,CC(=O)NC=1C=CC(=CC1)S(=O)(=O)Cl,-2.877
GREARFRXIFVLGB-UHFFFAOYSA-N,2-METHYLDECALINE,CC1CCC2CCCCC2C1,CC1CCC2CCCCC2C1,CC1CCC2CCCCC2C1,-6.57
GRGSHONWRKRWGP-UHFFFAOYSA-N,"Benzoic acid, 2-amino-4-sulfo-",Nc1cc(S(=O)(=O)O)ccc1C(=O)O,c1cc(c(cc1S(=O)(=O)O)N)C(=O)O,S(=O)(=O)(C1=CC(=C(C=C1)C(=O)O)N)O,-1.3157
GRIJBPAOIJBRSI-UHFFFAOYSA-N,"4-[(E)-2-(1-butyl-5-cyano-2-hydroxy-4-methyl-6-oxo-1,6-dihydropyridin-3-yl)diazen-1-yl]-N-(2-ethylhexyl)benzene-1-sulfonamide",CCCCC(CC)CNS(=O)(=O)c1ccc(/N=N/c2c(C)c(C#N)c(=O)n(CCCC)c2O)cc1,CCCCC(CC)CNS(=O)(=O)c1ccc(cc1)/N=N/c2c(c(c(=O)n(c2O)CCCC)C#N)C,CCCCC(CC)CNS(=O)(=O)C=1C=CC(=CC1)/N=N/C2=C(N(C(=O)C(=C2C)C#N)CCCC)O,-8.797156714
GRIRMAXRQHVXAN-UHFFFAOYSA-N,,COc1ccc(NC(=O)Cc2ccc(NC(=O)Nc3ccccc3C)cc2)cc1OCCCC(=O)NS(=O)(=O)c1c(C)noc1C,Cc1ccccc1NC(=O)Nc2ccc(cc2)CC(=O)Nc3ccc(c(c3)OCCCC(=O)NS(=O)(=O)c4c(noc4C)C)OC,COC=1C=CC(=CC1OCCCC(=O)NS(=O)(=O)C=2C(=NOC2C)C)NC(=O)CC=3C=CC(=CC3)NC(=O)NC=4C=CC=CC4C,-4.5306199000000005
GRJOCNZTENRLQX-UHFFFAOYSA-N,,O=C(Nc1ccc2sc3ccccc3c2c1)N1CCC(CO)CC1,c1ccc2c(c1)c3cc(ccc3s2)NC(=O)N4CCC(CC4)CO,OCC1CCN(CC1)C(=O)NC=2C=CC=3SC=4C=CC=CC4C3C2,-5.1135093000000005
GRLSWESXIFWOBF-UHFFFAOYSA-N,potassium 4-(acetoacetylamino)benzenesulfonate,CC(=O)CC(=O)Nc1ccc(S(=O)(=O)O)cc1,CC(=O)CC(=O)Nc1ccc(cc1)S(=O)(=O)O,CC(=O)CC(=O)NC=1C=CC(=CC1)S(=O)(=O)O,0.421723668
GRMDKKJYMUDEJO-UHFFFAOYSA-N,2-[[4-[(2-cyano-3-nitrophenyl)azo]-m-tolyl](2-acetoxyethyl)amino]ethyl acetate,CC(=O)OCCN(CCOC(C)=O)c1ccc(/N=N/c2ccc([N+](=O)[O-])cc2C#N)cc1,CC(=O)OCCN(CCOC(=O)C)c1ccc(cc1)/N=N/c2ccc(cc2C#N)[N+](=O)[O-],CC(=O)OCCN(CCOC(=O)C)C=1C=CC(=CC1)/N=N/C=2C=CC(=CC2C#N)[N+](=O)[O-],-7.300232522999999
GRNSRKVYJHRUMJ-UHFFFAOYSA-N,,CC(C)(C)NCC(O)COc1ccc(Nc2ncc(Cl)c(Nc3ccccn3)n2)cc1,CC(C)(C)NCC(COc1ccc(cc1)Nc2ncc(c(n2)Nc3ccccn3)Cl)O,CC(C)(C)NCC(O)COC=1C=CC(=CC1)NC=2N=CC(=C(N2)NC=3C=CC=CN3)Cl,-3.5228787000000006
GRNZOXPRBXDLPY-UHFFFAOYSA-N,5-BUTYL-5-ETHYL-2-THIOBARBITURIC ACID,CCCCC1(CC)C(=O)NC(=S)NC1=O,CCCCC1(C(=O)NC(=S)NC1=O)CC,CCCCC1(C(=O)NC(=S)NC1=O)CC,-3.14
GRPIZUDEDUULGM-UHFFFAOYSA-N,,CC(Oc1cccc2cnccc12)C(=O)Nc1ccc(C#N)c(Cl)c1,CC(C(=O)Nc1ccc(c(c1)Cl)C#N)Oc2cccc3c2ccnc3,CC(OC=1C=CC=C2C1C=CN=C2)C(=O)NC=3C=CC(=C(C3)Cl)C#N,-6.69897
GRPMXAJANZUMBJ-UHFFFAOYSA-N,,N#Cc1ccc(C(=O)NCCCOCc2c(Cl)cccc2Cl)cc1,c1cc(c(c(c1)Cl)COCCCNC(=O)c2ccc(cc2)C#N)Cl,ClC=1C=CC=C(C1COCCCNC(=O)C=2C=CC(=CC2)C#N)Cl,-5.0
GRPRVIYRYGLIJU-UHFFFAOYSA-N,Demeton-S,CCO[P+]([O-])(OCC)SCCSCC,CCO[P+]([O-])(OCC)SCCSCC,[P+](SCCSCC)(OCC)(OCC)[O-],-2.1109999999999998
GRRIYLZJLGTQJX-UHFFFAOYSA-N,"Benzoic acid, 2-benzoylhydrazide",O=C(NNC(=O)c1ccccc1)c1ccccc1,c1ccc(cc1)C(=O)NNC(=O)c2ccccc2,O=C(NNC(=O)C=1C=CC=CC1)C=2C=CC=CC2,-1.58815
GRSMWKLPSNHDHA-UHFFFAOYSA-N,Naphthalic anhydride,O=C1OC(=O)c2cccc3cccc1c23,c1cc2cccc3c2c(c1)C(=O)OC3=O,O=C1OC(=O)C=2C=CC=C3C2C1=CC=C3,-6.297026625
GRTHXBLKQUXGBP-UHFFFAOYSA-N,,CCCCOCc1ccc(Nc2nc(Nc3ccc(OCC(O)CN(C)C)cc3)ncc2Br)cc1,CCCCOCc1ccc(cc1)Nc2c(cnc(n2)Nc3ccc(cc3)OCC(CN(C)C)O)Br,CCCCOCC=1C=CC(=CC1)NC=2N=C(N=CC2Br)NC=3C=CC(=CC3)OCC(O)CN(C)C,-4.6575773
GRVIHTPHZQAERT-UHFFFAOYSA-N,,C=CCN(C(=O)Nc1ccc(F)cc1)C1CCN(CCC(c2ccccc2)c2ccccc2)CC1,C=CCN(C1CCN(CC1)CCC(c2ccccc2)c3ccccc3)C(=O)Nc4ccc(cc4)F,FC=1C=CC(=CC1)NC(=O)N(CC=C)C2CCN(CC2)CCC(C=3C=CC=CC3)C=4C=CC=CC4,-4.6777807000000005
GRWFGVWFFZKLTI-UHFFFAOYSA-N,ALPHA-PINENE,CC1=CC[C@H]2C[C@@H]1C2(C)C,CC1=CC[C@H]2C[C@@H]1C2(C)C,CC1=CC[C@H]2C[C@@H]1C2(C)C,-4.629148281
GRXKLBBBQUKJJZ-UHFFFAOYSA-N,Soman,CC(OP(C)(=O)F)C(C)(C)C,CC(C(C)(C)C)OP(=O)(C)F,P(=O)(OC(C(C)(C)C)C)(F)C,-0.938
GRZIBOVMVFVNJQ-UHFFFAOYSA-N,,CCN(CC)CCNC(=O)c1ccc(Nc2cnc3ccc(Cl)cc3n2)cc1,CCN(CC)CCNC(=O)c1ccc(cc1)Nc2cnc3ccc(cc3n2)Cl,CCN(CC)CCNC(=O)C=1C=CC(=CC1)NC=2C=NC=3C=CC(=CC3N2)Cl,-3.4067138999999997
GSAAJQNJNPBBSX-UHFFFAOYSA-N,,CCCC/C=C/CCCCCCCCO,CCCC/C=C/CCCCCCCCO,C(C/C=C/CCCC)CCCCCCO,-4.968999999999999
GSASPEJNWFVWQK-UHFFFAOYSA-N,5-Methyl-2-(4-NITROPHENYLSULFONAMIDO)PYRIDINE;  N-(5-Methylpyridin-2-yl)-4-nitrobenzenesulfonamide,Cc1ccc(NS(=O)(=O)c2ccc([N+](=O)[O-])cc2)nc1,Cc1ccc(nc1)NS(=O)(=O)c2ccc(cc2)[N+](=O)[O-],CC1=CC=C(N=C1)NS(=O)(=O)C2=CC=C(C=C2)[N+](=O)[O-],-4.29
GSDPVJNGSFZCIY-UHFFFAOYSA-N,,COC(=O)C(CO)NC(=O)c1ccc2[nH]c(-c3ccncc3)nc2c1,COC(=O)C(CO)NC(=O)c1ccc2c(c1)nc([nH]2)c3ccncc3,COC(=O)C(CO)NC(=O)C=1C=CC=2NC(=NC2C1)C=3C=CN=CC3,-4.5686362
GSDSWSVVBLHKDQ-UHFFFAOYSA-N,Ofloxacin,C[C@H]1COc2c(N3CCN(C)CC3)c(F)cc3c(=O)c(C(=O)O)cn1c23,C[C@H]1COc2c3n1cc(c(=O)c3cc(c2N4CCN(CC4)C)F)C(=O)O,O=C(C1=CN2C=3C(=C(C(=CC3C1=O)F)N4CCN(CC4)C)OCC2C)O,-1.266
GSEJCLTVZPLZKY-UHFFFAOYSA-N,tris(2-hydroxyethyl)azanium acetate,OCCN(CCO)CCO,C(CO)N(CCO)CCO,OCCN(CCO)CCO,0.752830143
GSGKUGGVXZDGBA-UHFFFAOYSA-N,"6,7-diethyl-1h-pteridin-2-one;  """"2-hydroxy-6,7-diethylpteridine""""",CCc1nc2cnc(O)nc2nc1CC,CCc1c(nc2c(n1)cnc(n2)O)CC,CCC=1N=C2C=NC(=NC2=NC1CC)O,-2.2642
GSHGLPXVPXZNRJ-UHFFFAOYSA-N,,O=CN(O)C(CCCc1ncccn1)CS(=O)(=O)N1CCC(Oc2ccc(C(F)(F)F)cc2)CC1,c1cnc(nc1)CCCC(CS(=O)(=O)N2CCC(CC2)Oc3ccc(cc3)C(F)(F)F)N(C=O)O,ON(C=O)C(CCCC=1N=CC=CN1)CS(=O)(=O)N2CCC(CC2)OC=3C=CC(=CC3)C(F)(F)F,-4.530178
GSITZZUEHIPPMH-UHFFFAOYSA-N,2-[(4-aminophenyl)amino]-5-nitrobenzene-1-sulfonic acid,Nc1ccc(Nc2ccc([N+](=O)[O-])cc2S(=O)(=O)O)cc1,c1cc(ccc1N)Nc2ccc(cc2S(=O)(=O)O)[N+](=O)[O-],NC=1C=CC(=CC1)NC=2C=CC(=CC2S(=O)(=O)O)[N+](=O)[O-],-1.598144765
GSIXJEIRJVOUFB-UHFFFAOYSA-N,"ethyl 2-(2,4-dimethyl-1,3-dioxolan-2-yl)acetate",CCOC(=O)CC1(C)OCC(C)O1,CCOC(=O)CC1(OCC(O1)C)C,CCOC(=O)CC1(OCC(O1)C)C,-2.1799436119999998
GSLVKBRGRSHUAU-UHFFFAOYSA-N,"4-(4-Bromo-2-fluorophenylamino)-5-fluoro-1-methyl-6-oxo-1,6-dihydropyridine-3-carboxylic acid ethoxyamide",CCONC(=O)c1cn(C)c(=O)c(F)c1Nc1ccc(Br)cc1F,CCONC(=O)c1cn(c(=O)c(c1Nc2ccc(cc2F)Br)F)C,CCONC(=O)C1=CN(C(=O)C(=C1NC2=CC=C(C=C2F)Br)F)C,-4.19
GSNCKEWFISAEJH-UHFFFAOYSA-N,,CCOc1ccc(NC(=O)C2CC(=O)N(c3ccc(Cl)cc3)C2)cc1,CCOc1ccc(cc1)NC(=O)C2CC(=O)N(C2)c3ccc(cc3)Cl,CCOC=1C=CC(=CC1)NC(=O)C2CN(C(=O)C2)C=3C=CC(=CC3)Cl,-6.537602
GSPZXGHHFDORDC-UHFFFAOYSA-N,"Butanoic acid, 2-[(aminoiminomethyl)amino]-",CCC(NC(=N)N)C(=O)O,CCC(C(=O)O)NC(=N)N,C(=N)(NC(C(=O)O)CC)N,-0.8608
GSVGZXWNWOCWGJ-UHFFFAOYSA-N,"Glycine, N-(3-nitrobenzoyl)-",O=C(O)CNC(=O)c1cccc([N+](=O)[O-])c1,c1cc(cc(c1)[N+](=O)[O-])C(=O)NCC(=O)O,O=C(CNC(=O)C1=CC(=CC=C1)[N+](=O)[O-])O,-1.7819999999999998
GSVIQADQNZROAL-UHFFFAOYSA-N,,COc1cc2ncc(C#N)c(Nc3ccc(Oc4ccccc4)cc3)c2cc1OC,COc1cc2c(cc1OC)ncc(c2Nc3ccc(cc3)Oc4ccccc4)C#N,COC=1C=C2N=CC(=C(C2=CC1OC)NC=3C=CC(=CC3)OC=4C=CC=CC4)C#N,-5.853872
GSWWSXMCFSVHHI-UHFFFAOYSA-N,,Cc1ccc(NC(=O)c2cc(F)cc(N3CCOCC3)c2)cc1NC(=O)c1cccc(OC2CCNCC2)c1,Cc1ccc(cc1NC(=O)c2cccc(c2)OC3CCNCC3)NC(=O)c4cc(cc(c4)F)N5CCOCC5,CC=1C=CC(=CC1NC(=O)C=2C=CC=C(C2)OC3CCNCC3)NC(=O)C=4C=C(C=C(C4)N5CCOCC5)F,-3.5850267
GSYPWFYYLAYWGZ-UHFFFAOYSA-N,,O=C(O)CC1CCCN(c2cc(F)cc(NC(=O)Cc3ccc4nc(Nc5ccccc5)oc4c3)c2)C1,c1ccc(cc1)Nc2nc3ccc(cc3o2)CC(=O)Nc4cc(cc(c4)F)N5CCCC(C5)CC(=O)O,OC(=O)CC1CCCN(C1)C=2C=C(C=C(C2)NC(=O)CC=3C=CC=4N=C(OC4C3)NC=5C=CC=CC5)F,-3.6197888
GSYXRHQSIJGQFH-UHFFFAOYSA-N,,CSCCC(NC(=O)c1ccc(/C=C(\Cn2ccnc2)c2nccs2)cc1-c1ccc(F)cc1)C(=O)Cc1ccccc1,CSCCC(C(=O)Cc1ccccc1)NC(=O)c2ccc(cc2c3ccc(cc3)F)/C=C(\Cn4ccnc4)/c5nccs5,CSCCC(NC(=O)C=1C=CC(=CC1C=2C=CC(=CC2)F)/C=C(\CN3C=CN=C3)/C4=NC=CS4)C(=O)CC=5C=CC=CC5,-6.69897
GTBKGBDIPDEEEM-UHFFFAOYSA-N,,COc1cc2c(Nc3ncc(CC(=O)Nc4ccc(F)c(F)c4)s3)ncnc2cc1OCCCN1CCC(O)CC1,COc1cc2c(cc1OCCCN3CCC(CC3)O)ncnc2Nc4ncc(s4)CC(=O)Nc5ccc(c(c5)F)F,COC=1C=C2C(=NC=NC2=CC1OCCCN3CCC(CC3)O)NC4=NC=C(S4)CC(=O)NC=5C=CC(=C(C5)F)F,-5.9586073
GTBZSIGMWOATEB-UHFFFAOYSA-N,,CN1CCC(Oc2cccc(C(=O)Nc3cc(NC(=O)c4cc(F)cc(N5CCOCC5)c4)ccc3Cl)c2)CC1,CN1CCC(CC1)Oc2cccc(c2)C(=O)Nc3cc(ccc3Cl)NC(=O)c4cc(cc(c4)F)N5CCOCC5,CN1CCC(CC1)OC=2C=CC=C(C2)C(=O)NC=3C=C(C=CC3Cl)NC(=O)C=4C=C(C=C(C4)N5CCOCC5)F,-5.080921900000001
GTCWZRDSJBFIDT-UHFFFAOYSA-N,Me (1-(4-bromo)phenylsulfonyl) cyclopentane carb,COC(=O)C1(S(=O)(=O)c2ccc(Br)cc2)CCCC1,COC(=O)C1(CCCC1)S(=O)(=O)c2ccc(cc2)Br,S(=O)(=O)(C1(CCCC1)C(=O)OC)C2=CC=C(C=C2)Br,-4.01
GTEPPJFJSNSNIH-UHFFFAOYSA-N,bidisomide,CC(=O)N(CCC(CCN1CCCCC1)(C(N)=O)c1ccccc1Cl)C(C)C,CC(C)N(CCC(CCN1CCCCC1)(c2ccccc2Cl)C(=O)N)C(=O)C,CC(C)N(CCC(CCN1CCCCC1)(C2=CC=CC=C2Cl)C(=O)N)C(=O)C,-1.6106388740000002
GTFMIJNXNMDHAB-UHFFFAOYSA-N,,O=C1CSc2ccccc2N1,c1ccc2c(c1)NC(=O)CS2,O=C1CSC=2C=CC=CC2N1,-3.0604807000000003
GTHLJVKDXJYEHR-UHFFFAOYSA-N,,COC1CCCC1(OC)c1cccc(OCC#Cc2ccccn2)c1,COC1CCCC1(c2cccc(c2)OCC#Cc3ccccn3)OC,COC1CCCC1(OC)C=2C=CC=C(C2)OCC#CC=3C=CC=CN3,-3.5528419999999996
GTIMEDOGDQMFOX-UHFFFAOYSA-N,"3-Fluoro-10-methyl-1,2-benzanthracene",Cc1ccc2cc3ccc4cc(F)ccc4c3cc2c1,Cc1ccc2cc3ccc4cc(ccc4c3cc2c1)F,CC1=CC=C2C=C3C=CC4=C(C3=CC2=C1)C=CC(=C4)F,-7.72
GTJOHISYCKPIMT-UHFFFAOYSA-N,2-Methylundecane,CCCCCCCCCC(C)C,CCCCCCCCCC(C)C,CCCCCCCCCC(C)C,-7.921
GTLUQRDIJWHQGF-UHFFFAOYSA-N,pteridine-4-thione,Sc1ncnc2nccnc12,c1cnc2c(n1)c(ncn2)S,S=C1NC=NC2=C1N=CC=N2,-2.64855
GTOKJXWRMXSLBC-UHFFFAOYSA-N,,Cc1cc(-c2ccc(NCc3ccccc3Cl)cn2)[nH]n1,Cc1cc([nH]n1)c2ccc(cn2)NCc3ccccc3Cl,CC=1C=C(NN1)C=2C=CC(=CN2)NCC=3C=CC=CC3Cl,-5.4814861
GTOMOLIKAAXJAC-UHFFFAOYSA-N,Acetaminophen hexanoate,CCCCCC(=O)Oc1ccc(NC(C)=O)cc1,CCCCCC(=O)Oc1ccc(cc1)NC(=O)C,CCCCCC(=O)OC1=CC=C(C=C1)NC(=O)C,-4.14
GTPQUGDEVBIYOW-UHFFFAOYSA-N,,CCn1c2ccccc2c2cc(NC(=O)C(C)(O)C(F)(F)F)ccc21,CCn1c2ccccc2c3c1ccc(c3)NC(=O)C(C)(C(F)(F)F)O,CCN1C=2C=CC=CC2C3=C1C=CC(=C3)NC(=O)C(C)(O)C(F)(F)F,-5.366531500000001
GTUWOMQCZKYYTB-UHFFFAOYSA-N,,CCn1c(-c2ccnc(Nc3ccc(S(=O)(=O)NCc4ccccn4)cc3)n2)cnc1C,CCn1c(ncc1c2ccnc(n2)Nc3ccc(cc3)S(=O)(=O)NCc4ccccn4)C,CCN1C(=NC=C1C=2C=CN=C(N2)NC=3C=CC(=CC3)S(=O)(=O)NCC=4C=CC=CN4)C,-4.2358239
GTVWRXDRKAHEAD-UHFFFAOYSA-N,TRIS(2-ETHYLHEXYL) PHOSPHATE,CCCCC(CC)COP(=O)(OCC(CC)CCCC)OCC(CC)CCCC,CCCCC(CC)COP(=O)(OCC(CC)CCCC)OCC(CC)CCCC,O=P(OCC(CCCC)CC)(OCC(CCCC)CC)OCC(CCCC)CC,-7.692084389
GTWVSZQYNJMNMX-UHFFFAOYSA-N,,COc1cc2ncnc(Nc3ccc(F)c(Cl)c3)c2cc1OCCCN1CCS(=O)(=O)CC1,COc1cc2c(cc1OCCCN3CCS(=O)(=O)CC3)c(ncn2)Nc4ccc(c(c4)Cl)F,COC=1C=C2N=CN=C(C2=CC1OCCCN3CCS(=O)(=O)CC3)NC=4C=CC(=C(C4)Cl)F,-5.091515
GTYIGAUPHJCMLF-UHFFFAOYSA-N,2-Phenyloctane,CCCCCCC(C)c1ccccc1,CCCCCCC(C)c1ccccc1,CCCCCCC(C)C1=CC=CC=C1,-5.8
GTZCVFVGUGFEME-UHFFFAOYSA-N,"1-propene-1,2,3-tricarboxylic acid, (z)-",O=C(O)/C=C(\CC(=O)O)C(=O)O,C(/C(=C\C(=O)O)/C(=O)O)C(=O)O,OC(=O)C/C(=C\C(=O)O)/C(=O)O,0.3612
GTZJPVAOIBKDEE-UHFFFAOYSA-N,,O=CN(O)C(CCc1cccnc1)CS(=O)(=O)N1CCN(c2ccc(Cl)cn2)CC1,c1cc(cnc1)CCC(CS(=O)(=O)N2CCN(CC2)c3ccc(cn3)Cl)N(C=O)O,ON(C=O)C(CCC=1C=CC=NC1)CS(=O)(=O)N2CCN(CC2)C=3C=CC(=CN3)Cl,-3.6777807
GTZPLHWEQVOXPM-UHFFFAOYSA-N,,O=C(O)c1ccc(NC(=O)c2cc(OCc3cc(F)ccc3F)cc(OCc3cc(F)ccc3F)c2)nc1,c1cc(c(cc1F)COc2cc(cc(c2)OCc3cc(ccc3F)F)C(=O)Nc4ccc(cn4)C(=O)O)F,OC(=O)C=1C=CC(=NC1)NC(=O)C=2C=C(C=C(C2)OCC=3C=C(C=CC3F)F)OCC=4C=C(C=CC4F)F,-5.6777807000000005
GUAZPUYTLMUTMA-UHFFFAOYSA-N,4-dimethylaminodiazenylbenzoic acid,CN(C)/N=N/c1ccc(C(=O)O)cc1,CN(C)/N=N/c1ccc(cc1)C(=O)O,CN(C)/N=N/C1=CC=C(C=C1)C(=O)O,-0.7979999999999999
GUBGYTABKSRVRQ-UHFFFAOYSA-N,Maltose,OC[C@H]1O[C@@H](O)[C@H](O)[C@@H](O)[C@@H]1O[C@@H]1O[C@H](CO)[C@H](O)[C@H](O)[C@H]1O,C([C@@H]1[C@@H]([C@@H]([C@H]([C@@H](O1)O[C@@H]2[C@H](O[C@H]([C@@H]([C@H]2O)O)O)CO)O)O)O)O,OC[C@H]1O[C@H]([C@@H]([C@H]([C@H]1O)O)O)O[C@H]2[C@@H]([C@H]([C@@H](O[C@@H]2CO)O)O)O,-0.242
GUCPYIYFQVTFSI-UHFFFAOYSA-N,4-Methoxybenzamide,COc1ccc(C(N)=O)cc1,COc1ccc(cc1)C(=O)N,COC1=CC=C(C=C1)C(=O)N,-1.72
GUCYFKSBFREPBC-UHFFFAOYSA-N,"[phenyl(2,4,6-trimethylbenzoyl)phosphoryl](2,4,6-trimethylphenyl)methanone",Cc1cc(C)c(C(=O)P(=O)(C(=O)c2c(C)cc(C)cc2C)c2ccccc2)c(C)c1,Cc1cc(c(c(c1)C)C(=O)P(=O)(c2ccccc2)C(=O)c3c(cc(cc3C)C)C)C,CC=1C=C(C(=C(C1)C)C(=O)P(=O)(C(=O)C=2C(=CC(=CC2C)C)C)C=3C=CC=CC3)C,-6.621667442000001
GUDPJVGXMNOZGQ-UHFFFAOYSA-N,"2-Heptenedioic acid, 4-oxo-",O=C(O)/C=C/C(=O)CCC(=O)O,C(CC(=O)O)C(=O)/C=C/C(=O)O,C(=O)(/C=C/C(=O)CCC(=O)O)O,-1.7590000000000001
GUEIZVNYDFNHJU-UHFFFAOYSA-N,"1,4-dihydroxy-9,10-dihydroanthracene-9,10-dione",O=C1c2ccccc2C(=O)c2c(O)ccc(O)c21,c1ccc2c(c1)C(=O)c3c(ccc(c3C2=O)O)O,OC=1C=CC(=C2C1C(=O)C3=C(C=CC=C3)C2=O)O,-6.286696996
GUFCIGLSXKDPIP-UHFFFAOYSA-N,,N#Cc1cccc(C(=O)NCCSc2ccccc2F)c1,c1ccc(c(c1)F)SCCNC(=O)c2cccc(c2)C#N,FC=1C=CC=CC1SCCNC(=O)C=2C=CC=C(C2)C#N,-3.7958800000000004
GUFDWQHGQJUQIF-UHFFFAOYSA-N,disodium 3-[[ethyl[4-[[4-[(3-sulphonatophenyl)azo]-1-naphthyl]azo]phenyl]amino]methyl]benzenesulphonate,CCN(Cc1cccc(S(=O)(=O)O)c1)c1ccc(/N=N/c2ccc(/N=N/c3cccc(S(=O)(=O)O)c3)c3ccccc23)cc1,CCN(Cc1cccc(c1)S(=O)(=O)O)c2ccc(cc2)/N=N/c3ccc(c4c3cccc4)/N=N/c5cccc(c5)S(=O)(=O)O,CCN(CC=1C=CC=C(C1)S(=O)(=O)O)C=2C=CC(=CC2)/N=N/C=3C=CC(=C4C3C=CC=C4)/N=N/C=5C=CC=C(C5)S(=O)(=O)O,0.17152188399999999
GUGOEEXESWIERI-UHFFFAOYSA-N,Terfenadine,CC(C)(C)c1ccc(C(O)CCCN2CCC(C(O)(c3ccccc3)c3ccccc3)CC2)cc1,CC(C)(C)c1ccc(cc1)C(CCCN2CCC(CC2)C(c3ccccc3)(c4ccccc4)O)O,OC(C=1C=CC=CC1)(C=2C=CC=CC2)C3CCN(CC3)CCCC(O)C=4C=CC(=CC4)C(C)(C)C,-6.69
GUIWHRQXQQXCFG-UHFFFAOYSA-N,,Cc1cc(-c2ccc(Cl)cc2)c2c(n1)CCCC2=O,Cc1cc(c2c(n1)CCCC2=O)c3ccc(cc3)Cl,CC=1C=C(C2=C(N1)CCCC2=O)C=3C=CC(=CC3)Cl,-3.7212464
GUJHFRPMSQFYJM-UHFFFAOYSA-N,"2-Amino-6,7-diethyl-3H-pteridin-4-one;  2-AMINO-6,7-DIETHYL-4-HYDROXYPTERIDINE",CCc1nc2nc(N)[nH]c(=O)c2nc1CC,CCc1c(nc2c(n1)c(=O)[nH]c(n2)N)CC,CCC1=NC2=C(N=C1CC)C(=O)NC(=N2)N,-4.28
GULNIHOSWFYMRN-UHFFFAOYSA-N,"N-[(4-methoxyphenyl)methyl]-N',N'-dimethyl-N-pyrimidin-2-ylethane-1,2-diamine",COc1ccc(CN(CCN(C)C)c2ncccn2)cc1,CN(C)CCN(Cc1ccc(cc1)OC)c2ncccn2,N(C1=NC=CC=N1)(CC2=CC=C(C=C2)OC)CCN(C)C,-2.989
GUMCAKKKNKYFEB-UHFFFAOYSA-N,"2,4,5-Trichloroaniline",Nc1cc(Cl)c(Cl)cc1Cl,c1c(c(cc(c1Cl)Cl)Cl)N,NC=1C=C(C(=CC1Cl)Cl)Cl,-3.435975243
GUMFWXBSFOHZDC-UHFFFAOYSA-N,,CNC(=O)Nc1ccc(C)c(Cl)c1,Cc1ccc(cc1Cl)NC(=O)NC,ClC1=C(C=CC(=C1)NC(=O)NC)C,-2.878
GUMPYDGUYXOYML-UHFFFAOYSA-N,"1-(3-chloropropyl)-2,3-dihydro-1H-1,3-benzodiazol-2-one",O=c1[nH]c2ccccc2n1CCCCl,c1ccc2c(c1)[nH]c(=O)n2CCCCl,ClCCCN1C(=O)NC=2C1=CC=CC2,-3.020197135
GUNGCOIXSOZDCM-UHFFFAOYSA-N,"PROPANAMIDE, 2-[[(BENZOYLOXY)ACETYL]AMINO]-",CC(NC(=O)COC(=O)c1ccccc1)C(N)=O,CC(C(=O)N)NC(=O)COC(=O)c1ccccc1,CC(NC(=O)COC(=O)C=1C=CC=CC1)C(=O)N,-2.7186
GUOSQNAUYHMCRU-UHFFFAOYSA-N,11-Aminoundecanoic_Acid,NCCCCCCCCCCC(=O)O,C(CCCCCN)CCCCC(=O)O,O=C(O)CCCCCCCCCCN,-2.550387681
GUPXYSSGJWIURR-UHFFFAOYSA-N,"3-Octyloxy-propane-1,2-diol",CCCCCCCCOCC(O)CO,CCCCCCCCOCC(CO)O,CCCCCCCCOCC(O)CO,-1.9208