inchikey,Name,SMILES_stand,SMILES,kekSmiles,logS
HMMSYKXJCTUNIX-UHFFFAOYSA-N,,COc1ccc(Cl)c(Nc2ncnc3cc(OCCCN4CCN(C)CC4)c(OC)cc23)c1,CN1CCN(CC1)CCCOc2cc3c(cc2OC)c(ncn3)Nc4cc(ccc4Cl)OC,COC=1C=CC(=C(C1)NC=2N=CN=C3C2C=C(C(=C3)OCCCN4CCN(CC4)C)OC)Cl,-2.4814861
HMQLIMSXGZGYIQ-UHFFFAOYSA-N,,COc1cc2c(Nc3c(Cl)ccc4c3OCO4)ncnc2cc1OCCN1CCCCC1,COc1cc2c(cc1OCCN3CCCCC3)ncnc2Nc4c(ccc5c4OCO5)Cl,COC=1C=C2C(=NC=NC2=CC1OCCN3CCCCC3)NC=4C5=C(C=CC4Cl)OCO5,-4.446117
HMSWAIKSFDFLKN-UHFFFAOYSA-N,hexacosane,CCCCCCCCCCCCCCCCCCCCCCCCCC,CCCCCCCCCCCCCCCCCCCCCCCCCC,CCCCCCCCCCCCCCCCCCCCCCCCCC,-8.334
HMSYOMRFLOKYEK-UHFFFAOYSA-N,Pyrrolidinyl sulfone,O=S(=O)(N1CCCC1)N1CCCC1,C1CCN(C1)S(=O)(=O)N2CCCC2,S(=O)(=O)(N1CCCC1)N2CCCC2,-0.4375
HMTVQUUAXWCREQ-UHFFFAOYSA-N,"Benzaldehyde, 3-ethoxy-4-hydroxy-, semicarbazone",CCOc1cc(/C=N/NC(N)=O)ccc1O,CCOc1cc(ccc1O)/C=N/NC(=O)N,O=C(N/N=C/C=1C=C(C(=CC1)O)OCC)N,-2.805
HMVVJYXWTGGFDR-UHFFFAOYSA-N,Indanthren Rubine RS,CCn1nc2cc(-c3cc4c5c(n(CC)nc5c3)-c3ccccc3C4=O)cc3c2c1-c1ccccc1C3=O,CCn1c-2c3c(cc(cc3n1)c4cc5c6c(c4)nn(c6-c7ccccc7C5=O)CC)C(=O)c8c2cccc8,CCN1N=C2C=C(C=C3C2=C1C=4C(=CC=CC4)C3=O)C5=CC6=NN(C7=C6C(=C5)C(=O)C=8C7=CC=CC8)CC,-4.3930918619999995
HMWQLOYNKNUIJZ-UHFFFAOYSA-N,,N#CCNC(=O)C(NC(=O)Cc1ccccc1)Sc1ccccc1,c1ccc(cc1)CC(=O)NC(C(=O)NCC#N)Sc2ccccc2,O=C(CC=1C=CC=CC1)NC(SC=2C=CC=CC2)C(=O)NCC#N,-4.79588
HMYBDZFSXBJDGL-UHFFFAOYSA-N,"1,3-Divinylimidazolidin-2-one",C=CN1CCN(C=C)C1=O,C=CN1CCN(C1=O)C=C,C=CN1CCN(C1=O)C=C,-1.155943222
HMZGPNHSPWNGEP-UHFFFAOYSA-N,octadecyl 2-methylprop-2-enoate,C=C(C)C(=O)OCCCCCCCCCCCCCCCCCC,CCCCCCCCCCCCCCCCCCOC(=O)C(=C)C,CCCCCCCCCCCCCCCCCCOC(=O)C(=C)C,-8.529828085
HNAHSZOZZNPVNF-UHFFFAOYSA-N,,CC1CCCCOC(CN(C)C)C(C)CN(C(C)CO)C(=O)c2cc(NS(C)(=O)=O)ccc2O1,CC1CCCCOC(C(CN(C(=O)c2cc(ccc2O1)NS(=O)(=O)C)C(C)CO)C)CN(C)C,CC(CO)N1CC(C(OCCCCC(OC2=CC=C(C=C2C1=O)NS(=O)(=O)C)C)CN(C)C)C,-4.0
HNBXADIWHNCUSX-UHFFFAOYSA-N,,CCN(CC)CCCNC(=O)Nc1ccc2c(c1)c1ccccc1n2CC,CCn1c2ccccc2c3c1ccc(c3)NC(=O)NCCCN(CC)CC,CCN(CC)CCCNC(=O)NC=1C=CC=2N(C=3C=CC=CC3C2C1)CC,-3.0268721000000003
HNDVDQJCIGZPNO-UHFFFAOYSA-N,Molecule788,NC(Cc1c[nH]cn1)C(=O)O,c1c(nc[nH]1)CC(C(=O)O)N,O=C(O)[C@@H](N)CC=1NC=NC1,-0.53
HNFJEPMYRFFBAZ-UHFFFAOYSA-N,,CNCC1OCCCCC(C)Oc2ccc(NC(=O)Nc3ccccc3)cc2C(=O)N(C(C)CO)CC1C,CC1CCCCOC(C(CN(C(=O)c2cc(ccc2O1)NC(=O)Nc3ccccc3)C(C)CO)C)CNC,CNCC1OCCCCC(OC2=CC=C(C=C2C(=O)N(CC1C)C(C)CO)NC(=O)NC3=CC=CC=C3)C,-4.0
HNIPNANLYHXYDE-UHFFFAOYSA-N,,CC(=O)Nc1cccc(C(F)(F)F)c1,CC(=O)Nc1cccc(c1)C(F)(F)F,C1(=CC(=CC=C1)C(F)(F)F)NC(=O)C,-2.8680000000000003
HNJJXZKZRAWDPF-UHFFFAOYSA-N,Methapyrilene,CN(C)CCN(Cc1cccs1)c1ccccn1,CN(C)CCN(Cc1cccs1)c2ccccn2,CN(C)CCN(CC=1SC=CC1)C=2C=CC=CN2,-2.639207249
HNKFIAIVTFLINQ-UHFFFAOYSA-N,,CC(C)Cn1c(=O)n(C)c(=O)c2c(C(=O)N3CCS(=O)(=O)CC3)c(Cc3ccccc3C(F)(F)F)sc21,CC(C)Cn1c2c(c(c(s2)Cc3ccccc3C(F)(F)F)C(=O)N4CCS(=O)(=O)CC4)c(=O)n(c1=O)C,FC(F)(F)C=1C(=CC=CC1)CC2=C(C3=C(S2)N(C(=O)N(C3=O)C)CC(C)C)C(=O)N4CCS(=O)(=O)CC4,-5.1028779
HNKFVQSWWYMANO-UHFFFAOYSA-N,5-FLUOROURACIL-1-METHYL  BUTYRATE;  1-Butanoyloxymethyl-5-fluorouracil,CCCC(=O)OCn1cc(F)c(=O)[nH]c1=O,CCCC(=O)OCn1cc(c(=O)[nH]c1=O)F,CCCC(=O)OCN1C=C(C(=O)NC1=O)F,-1.31
HNKINIUXSPUALZ-UHFFFAOYSA-N,,Cc1cc(C)cc(-c2[nH]c3ccc(C(C)(C)C(=O)N4CCCC4)cc3c2CCNCCCCc2ccncc2)c1,Cc1cc(cc(c1)c2c(c3cc(ccc3[nH]2)C(C)(C)C(=O)N4CCCC4)CCNCCCCc5ccncc5)C,CC=1C=C(C=C(C1)C=2NC=3C=CC(=CC3C2CCNCCCCC=4C=CN=CC4)C(C)(C)C(=O)N5CCCC5)C,-3.7212464
HNNWFOKEOYHSCW-UHFFFAOYSA-N,N-(N-Methylcarbamimidoyl)-2-naphthalenesulfonamide,CNC(=N)NS(=O)(=O)c1ccc2ccccc2c1,CNC(=N)NS(=O)(=O)c1ccc2ccccc2c1,S(=O)(=O)(C1=CC2=C(C=C1)C=CC=C2)NC(=N)NC,-3.1
HNRADDKFURCLRD-UHFFFAOYSA-N,3-Pentanoyl-5-fluorouracil;  3-VALEROYL-5-FLUOROURACIL,CCCCC(=O)n1c(=O)[nH]cc(F)c1=O,CCCCC(=O)n1c(=O)c(c[nH]c1=O)F,CCCCC(=O)N1C(=O)NC=C(C1=O)F,-2.3
HNRPIUDTZLIYEC-UHFFFAOYSA-N,"Benzoic acid, 2-(2-hydroxybenzoyl)-",O=C(O)c1ccccc1C(=O)c1ccccc1O,c1ccc(c(c1)C(=O)c2ccccc2O)C(=O)O,OC(=O)C=1C=CC=CC1C(=O)C=2C=CC=CC2O,-2.3429
HNSDLXPSAYFUHK-UHFFFAOYSA-N,"sodium 1,4-bis[(2-ethylhexyl)oxy]-1,4-dioxobutane-2-sulfonate",CCCCC(CC)COC(=O)CC(C(=O)OCC(CC)CCCC)S(=O)(=O)O,CCCCC(CC)COC(=O)CC(C(=O)OCC(CC)CCCC)S(=O)(=O)O,CCCCC(CC)COC(=O)CC(C(=O)OCC(CC)CCCC)S(=O)(=O)O,-1.735857095
HNSUDSIHCJEYQG-UHFFFAOYSA-N,4-amino-1-[4-fluoro-5-(hydroxymethyl)oxolan-2-yl]pyrimidin-2-one,Nc1ccn(C2CC(F)C(CO)O2)c(=O)n1,c1cn(c(=O)nc1N)C2CC(C(O2)CO)F,NC1=NC(=O)N(C=C1)C2CC(C(O2)CO)F,-1.182
HNSVDKLARSSFGE-UHFFFAOYSA-N,"6,7-Pteridinedione, 5,8-dihydro-",O=c1[nH]c2cncnc2[nH]c1=O,c1c2c([nH]c(=O)c(=O)[nH]2)ncn1,O=C1NC=2C(NC1=O)=CN=CN2,-2.6915
HNUCODURKRHFRV-UHFFFAOYSA-N,,C#CCN(Cc1ccc2nc(N)nc(N)c2c1)c1ccc(C(=O)NCc2cccnc2)cc1,C#CCN(Cc1ccc2c(c1)c(nc(n2)N)N)c3ccc(cc3)C(=O)NCc4cccnc4,NC=1N=C(C=2C=C(C=CC2N1)CN(CC#C)C=3C=CC(=CC3)C(=O)NCC=4C=CC=NC4)N,-5.453457299999999
HNURKXXMYARGAY-UHFFFAOYSA-N,"2,6-Di-tert-butyl-4-(hydroxymethyl)phenol",CC(C)(C)c1cc(CO)cc(C(C)(C)C)c1O,CC(C)(C)c1cc(cc(c1O)C(C)(C)C)CO,CC(C)(C)C=1C=C(C=C(C1O)C(C)(C)C)CO,-4.012891052
HNUUHIJJGJGSGA-UHFFFAOYSA-N,Sulfacetamide,O=C(O)C1CC(/N=N/C2CCC(S(=O)(=O)NC3CCCCN3)CC2)CCC1O,C1CCNC(C1)NS(=O)(=O)C2CCC(CC2)/N=N/C3CCC(C(C3)C(=O)O)O,C(=O)(C1CC(CCC1O)/N=N/C2CCC(CC2)S(=O)(=O)NC3NCCCC3)O,-1.52
HNXNKTMIVROLTK-UHFFFAOYSA-N,"N,N-Dimethyldecanamide",CCCCCCCCCC(=O)N(C)C,CCCCCCCCCC(=O)N(C)C,CCCCCCCCCC(=O)N(C)C,-2.76555559
HNXQXTQTPAJEJL-UHFFFAOYSA-N,"4(1H)-Pteridinone, 2-amino-",Nc1nc(=O)c2nccnc2[nH]1,c1cnc2c(n1)c(=O)nc([nH]2)N,NC1=NC(=O)C2=C(N1)N=CC=N2,-3.463
HNZUNIKWNYHEJJ-UHFFFAOYSA-N,"6,10-Dimethylundeca-5,9-dien-2-one",CC(=O)CC/C=C(\C)CCC=C(C)C,CC(=CCC/C(=C/CCC(=O)C)/C)C,CC(=CCC/C(=C/CCC(=O)C)/C)C,-3.697448425
HOAAQUNESXYFDT-UHFFFAOYSA-N,"2,5-Dimethyloctane",CCCC(C)CCC(C)C,CCCC(C)CCC(C)C,CCCC(C)CCC(C)C,-6.162000000000001
HOAXKZYYZXASLJ-UHFFFAOYSA-N,ethyl 4-hydroxy-3-iodobenzoate,CCOC(=O)c1ccc(O)c(I)c1,CCOC(=O)c1ccc(c(c1)I)O,CCOC(=O)C=1C=CC(=C(C1)I)O,-3.492
HOBYPSNNFBRLIX-UHFFFAOYSA-N,,O=S1(=O)Nc2cccc3cccc1c23,c1cc2cccc3c2c(c1)NS3(=O)=O,O=S1(=O)NC=2C=CC=C3C2C1=CC=C3,-2.0
HOEFWOBLOGZQIQ-UHFFFAOYSA-N,4-[(morpholin-4-ylcarbonothioyl)sulfanyl]morpholine,S=C(SN1CCOCC1)N1CCOCC1,C1COCCN1C(=S)SN2CCOCC2,S=C(SN1CCOCC1)N2CCOCC2,-3.2911503310000003
HOERQTQCTISLFR-UHFFFAOYSA-N,BENZOXIMATE,CCN(OC(=O)c1ccccc1)C(=O)c1c(OC)ccc(Cl)c1OC,CCN(C(=O)c1c(ccc(c1OC)Cl)OC)OC(=O)c2ccccc2,CCN(OC(=O)C=1C=CC=CC1)C(=O)C=2C(=CC=C(C2OC)Cl)OC,-4.08385
HOHZZPCLZWZMOM-UHFFFAOYSA-N,"6-methyl-1,4-dihydroquinoxaline-2,3-dione",Cc1ccc2[nH]c(=O)c(=O)[nH]c2c1,Cc1ccc2c(c1)[nH]c(=O)c(=O)[nH]2,CC=1C=CC=2NC(=O)C(=O)NC2C1,-3.0418
HOKKHZGPKSLGJE-UHFFFAOYSA-N,"L-Aspartic acid, N-methyl-",CNC(CC(=O)O)C(=O)O,CNC(CC(=O)O)C(=O)O,O=C(C(CC(=O)O)NC)O,-0.7544
HOKKPVIRMVDYPB-UHFFFAOYSA-N,,N#C/N=C1/SCCN1Cc1ccc(Cl)nc1,c1cc(ncc1CN\2CCS/C2=N/C#N)Cl,ClC1=NC=C(C=C1)CN2/C(=N\C#N)/SCC2,-3.138
HOMGKSMUEGBAAB-UHFFFAOYSA-N,ifosfamide,O=P1(NCCCl)OCCCN1CCCl,C1CN(P(=O)(OC1)NCCCl)CCCl,C1CN(P(=O)(OC1)NCCCl)CCCl,-0.416790238
HOPRZCPEVGHRFV-UHFFFAOYSA-N,,COc1cc2ncnc(Nc3ccc(F)cc3)c2cc1OCCCN1CCOCC1,COc1cc2c(cc1OCCCN3CCOCC3)c(ncn2)Nc4ccc(cc4)F,COC=1C=C2N=CN=C(C2=CC1OCCCN3CCOCC3)NC=4C=CC(=CC4)F,-3.8239087
HOPWGOFWAPWHDS-UHFFFAOYSA-N,4-ETHYLACETANILIDE,CCc1ccc(NC(C)=O)cc1,CCc1ccc(cc1)NC(=O)C,CCC=1C=CC(=CC1)NC(=O)C,-2.14515
HOQADATXFBOEGG-UHFFFAOYSA-N,Isofenphos,CCOP(=S)(NC(C)C)Oc1ccccc1C(=O)OC(C)C,CCOP(=S)(NC(C)C)Oc1ccccc1C(=O)OC(C)C,S=P(OCC)(OC=1C(=CC=CC1)C(=O)OC(C)C)NC(C)C,-4.19395
HOQGHOMLEVKTBY-UHFFFAOYSA-N,"1,4-bis(2-ethylhexyl) cyclohexane-1,4-dicarboxylate",CCCCC(CC)COC(=O)C1CCC(C(=O)OCC(CC)CCCC)CC1,CCCCC(CC)COC(=O)C1CCC(CC1)C(=O)OCC(CC)CCCC,CCCCC(CC)COC(=O)C1CCC(CC1)C(=O)OCC(CC)CCCC,-6.926133996
HOQJVPQKZAAICQ-UHFFFAOYSA-N,,CNCCOc1ccc2ncnc(Nc3ccc(C(=O)c4ccccc4)c(Cl)c3)c2c1,CNCCOc1ccc2c(c1)c(ncn2)Nc3ccc(c(c3)Cl)C(=O)c4ccccc4,CNCCOC=1C=CC=2N=CN=C(C2C1)NC=3C=CC(=C(C3)Cl)C(=O)C=4C=CC=CC4,-4.6777807000000005
HOQKGCIZHZIZQS-UHFFFAOYSA-N,"1,3-Naphthalenedisulfonic acid, 7-hydroxy-8-(1-n",O=S(=O)(O)c1cc(S(=O)(=O)O)c2c(/N=N/c3cccc4ccccc34)c(O)ccc2c1,c1ccc2c(c1)cccc2/N=N/c3c(ccc4c3c(cc(c4)S(=O)(=O)O)S(=O)(=O)O)O,S(=O)(=O)(C1=C2C(=C(C=CC2=CC(=C1)S(=O)(=O)O)O)/N=N/C3=C4C(C=CC=C4)=CC=C3)O,-0.33945
HOQUBPDLUPWGJX-UHFFFAOYSA-N,,O=C(NC(Cc1ccc(F)cc1)C(=O)N1CCC(O)CC1)c1cc2sc(Cl)c(Cl)c2[nH]1,c1cc(ccc1CC(C(=O)N2CCC(CC2)O)NC(=O)c3cc4c([nH]3)c(c(s4)Cl)Cl)F,OC1CCN(CC1)C(=O)C(CC=2C=CC(=CC2)F)NC(=O)C3=CC=4SC(=C(C4N3)Cl)Cl,-5.0457575
HORPBQZPZKVXBC-UHFFFAOYSA-N,,COc1cccc(C(=O)Nc2cccc(Nc3nc(-c4ccncc4)nc4ccccc34)c2)c1,COc1cccc(c1)C(=O)Nc2cccc(c2)Nc3c4ccccc4nc(n3)c5ccncc5,COC=1C=CC=C(C1)C(=O)NC=2C=CC=C(C2)NC=3N=C(N=C4C3C=CC=C4)C=5C=CN=CC5,-5.6516950999999995
HOUFIEDXOKAHCW-UHFFFAOYSA-N,,COc1cc(CC(=O)Nc2ccc(OC3CCN(C)CC3)c(OCC(C)CC(=O)O)c2)cc2oc(Nc3ccccc3)nc12,CC(CC(=O)O)COc1cc(ccc1OC2CCN(CC2)C)NC(=O)Cc3cc4c(c(c3)OC)nc(o4)Nc5ccccc5,COC=1C=C(C=C2C1N=C(O2)NC=3C=CC=CC3)CC(=O)NC=4C=CC(=C(C4)OCC(C)CC(=O)O)OC5CCN(CC5)C,-3.7212464
HOVAGTYPODGVJG-UHFFFAOYSA-N,Alpha-Methylglucoside,COC1OC(CO)C(O)C(O)C1O,COC1C(C(C(C(O1)CO)O)O)O,COC1OC(C(C(C1O)O)O)CO,0.2995
HOVLLNIICPXNMW-UHFFFAOYSA-N,,COc1cc(CC(=O)Nc2ccc(OCCCOCc3ccccc3)c(OCCCC(=O)O)c2)ccc1NC(=O)Nc1ccccc1C,Cc1ccccc1NC(=O)Nc2ccc(cc2OC)CC(=O)Nc3ccc(c(c3)OCCCC(=O)O)OCCCOCc4ccccc4,COC=1C=C(C=CC1NC(=O)NC=2C=CC=CC2C)CC(=O)NC=3C=CC(=C(C3)OCCCC(=O)O)OCCCOCC=4C=CC=CC4,-4.79588
HOVQFGLRQDKTFR-UHFFFAOYSA-N,"Propanoic acid, 2-hydroxy-2-methyl-, pentyl este",CCCCCOC(=O)C(C)(C)O,CCCCCOC(=O)C(C)(C)O,C(=O)(C(O)(C)C)OCCCCC,-1.2409999999999999
HOVVFNPKGWZRTE-UHFFFAOYSA-N,2-fluoroacridin-9-amine,Nc1c2ccccc2nc2ccc(F)cc12,c1ccc2c(c1)c(c3cc(ccc3n2)F)N,NC1=C2C=C(C=CC2=NC3=C1C=CC=C3)F,-2.398
HOXWGWQAFJDHFH-UHFFFAOYSA-N,,COc1cc2ncnc(Nc3cccc(Cl)c3)c2cc1OC1CCN(C)CC1,CN1CCC(CC1)Oc2cc3c(cc2OC)ncnc3Nc4cccc(c4)Cl,COC=1C=C2N=CN=C(C2=CC1OC3CCN(CC3)C)NC=4C=CC=C(C4)Cl,-3.853872
HOYGXIYWBAZBST-UHFFFAOYSA-N,,CC(O)(C(=O)Nc1ccc(NS(=O)(=O)c2ccccc2Cl)cc1Cl)C(F)(F)F,CC(C(=O)Nc1ccc(cc1Cl)NS(=O)(=O)c2ccccc2Cl)(C(F)(F)F)O,CC(O)(C(=O)NC=1C=CC(=CC1Cl)NS(=O)(=O)C=2C=CC=CC2Cl)C(F)(F)F,-3.7447275
HOZRMSVNIKYCMB-UHFFFAOYSA-N,"N-(2,5-Dimethoxyphenyl)acetamide",COc1ccc(OC)c(NC(C)=O)c1,CC(=O)Nc1cc(ccc1OC)OC,COC=1C=CC(=C(C1)NC(=O)C)OC,-1.5917749280000002
HPCXEFQQBDUUAD-UHFFFAOYSA-N,,Cc1nc(C)n(C)c1-c1ccnc(Nc2ccc(S(N)(=O)=O)cc2)n1,Cc1c(n(c(n1)C)C)c2ccnc(n2)Nc3ccc(cc3)S(=O)(=O)N,CC=1N=C(N(C1C=2C=CN=C(N2)NC=3C=CC(=CC3)S(=O)(=O)N)C)C,-4.4168012
HPEUJPJOZXNMSJ-UHFFFAOYSA-N,methyl stearate; methyl octadecanoate; octadecanoic acid methyl ester,CCCCCCCCCCCCCCCCCC(=O)OC,CCCCCCCCCCCCCCCCCC(=O)OC,CCCCCCCCCCCCCCCCCC(=O)OC,-8.996
HPFDGTFXAVIVTH-UHFFFAOYSA-N,TRIPROPYLENE GLYCOL METHYL ETHER,COCC(C)OCC(C)OCC(C)O,CC(COC(C)COC(C)COC)O,O(CC(O)C)C(COC(COC)C)C,0.6855
HPHUVLMMVZITSG-UHFFFAOYSA-N,levetiracetam,CC[C@@H](C(N)=O)N1CCCC1=O,CC[C@@H](C(=O)N)N1CCCC1=O,CC[C@@H](C(=O)N)N1CCCC1=O,0.7860482679999999
HPJFAVCAOBGRQI-UHFFFAOYSA-N,,O=C(O)CC(COc1cccc(NC(=O)Cc2ccc3nc(Nc4ccccc4)oc3c2)c1)c1ccccc1,c1ccc(cc1)C(CC(=O)O)COc2cccc(c2)NC(=O)Cc3ccc4c(c3)oc(n4)Nc5ccccc5,OC(=O)CC(COC=1C=CC=C(C1)NC(=O)CC=2C=CC=3N=C(OC3C2)NC=4C=CC=CC4)C=5C=CC=CC5,-3.9586072999999997
HPJKCIUCZWXJDR-UHFFFAOYSA-N,letrozole,N#Cc1ccc(C(c2ccc(C#N)cc2)n2cncn2)cc1,c1cc(ccc1C#N)C(c2ccc(cc2)C#N)n3cncn3,C1=CC(=CC=C1C#N)C(C2=CC=C(C=C2)C#N)N3C=NC=N3,-3.842517915
HPLGRDDPZODNAW-UHFFFAOYSA-N,PHENYL  5-FLUOROURACIL-1-CARBOXYLATE;  1-Phenyloxycarbonyl-5-fluorouracil,O=C(Oc1ccccc1)n1cc(F)c(=O)[nH]c1=O,c1ccc(cc1)OC(=O)n2cc(c(=O)[nH]c2=O)F,FC1=CN(C(=O)NC1=O)C(=O)OC2=CC=CC=C2,-2.44
HPQURZRDYMUHJI-UHFFFAOYSA-N,Pentylcyclopentane,CCCCCC1CCCC1,CCCCCC1CCCC1,CCCCCC1CCCC1,-6.08
HPRGYUWRGCTBAV-UHFFFAOYSA-N,"3,4'-Dichlorodiphenyl ether",Clc1ccc(Oc2cccc(Cl)c2)cc1,c1cc(cc(c1)Cl)Oc2ccc(cc2)Cl,ClC=1C=CC(=CC1)OC=2C=CC=C(C2)Cl,-5.078727659
HPUPGAFDTWIMBR-UHFFFAOYSA-N,Diphenyl methylphosphonate,CP(=O)(Oc1ccccc1)Oc1ccccc1,CP(=O)(Oc1ccccc1)Oc2ccccc2,CP(=O)(OC=1C=CC=CC1)OC=2C=CC=CC2,-2.201854337
HPWHRYRPSRLYTA-UHFFFAOYSA-N,,O=C(Nc1ncc(Nc2ccnc3cc(OCCCN4CCOCC4)ccc23)cn1)c1ccccc1,c1ccc(cc1)C(=O)Nc2ncc(cn2)Nc3ccnc4c3ccc(c4)OCCCN5CCOCC5,O=C(NC=1N=CC(=CN1)NC=2C=CN=C3C2C=CC(=C3)OCCCN4CCOCC4)C=5C=CC=CC5,-3.6989699999999996
HPYDSVWYXXKHRD-UHFFFAOYSA-N,L-tyrosylglycine,NC(Cc1ccc(O)cc1)C(=O)NCC(=O)O,c1cc(ccc1CC(C(=O)NCC(=O)O)N)O,NC(CC1=CC=C(C=C1)O)C(=O)NCC(=O)O,-1.0979999999999999
HPYOHJMBDBVTMT-UHFFFAOYSA-N,2-[(E)-2-(2-chloro-4-{3-chloro-4-[(E)-2-[2-oxo-1-(phenylcarbamoyl)propyl]diazen-1-yl]phenyl}phenyl)diazen-1-yl]-3-oxo-N-phenylbutanamide; 2-[(E)-2-(2-chloro-4-{3-chloro-4-[(E)-2-{1-[(4-methoxyphenyl)carbamoyl]-2-oxopropyl}diazen-1-yl]phenyl}phenyl)diazen-1-yl]-3-oxo-N-phenylbutanamide; 2-[(E)-2-(2-chloro-4-{3-chloro-4-[(E)-2-{1-[(4-methoxyphenyl)carbamoyl]-2-oxopropyl}diazen-1-yl]phenyl}phenyl)diazen-1-yl]-N-(4-methoxyphenyl)-3-oxobutanamide,COc1ccc(NC(=O)C(/N=N/c2ccc(-c3ccc(/N=N/C(C(C)=O)C(=O)Nc4ccc(OC)cc4)c(Cl)c3)cc2Cl)C(C)=O)cc1,CC(=O)C(C(=O)Nc1ccc(cc1)OC)/N=N/c2ccc(cc2Cl)c3ccc(c(c3)Cl)/N=N/C(C(=O)C)C(=O)Nc4ccc(cc4)OC,COC=1C=CC(=CC1)NC(=O)C(/N=N/C=2C=CC(=CC2Cl)C=3C=CC(=C(C3)Cl)/N=N/C(C(=O)C)C(=O)NC=4C=CC(=CC4)OC)C(=O)C,-8.540240477000001
HQAKOEAAJCETBR-UHFFFAOYSA-N,,CSCCC(NC(=O)c1cc(/C=C/C2CC(SC(=O)C3CCN(C)CC3)CN2)ccc1CCc1ccc(F)cc1)C(=O)OC(C)C,CC(C)OC(=O)C(CCSC)NC(=O)c1cc(ccc1CCc2ccc(cc2)F)/C=C/C3CC(CN3)SC(=O)C4CCN(CC4)C,CSCCC(NC(=O)C=1C=C(C=CC1CCC=2C=CC(=CC2)F)/C=C/C3CC(CN3)SC(=O)C4CCN(CC4)C)C(=O)OC(C)C,-3.7695510999999997
HQBKUPMEDZLUFZ-UHFFFAOYSA-N,,Cn1c(=O)sc2c(NC(C)(C)CO)nc(SCc3ccccc3)nc21,CC(C)(CO)Nc1c2c(nc(n1)SCc3ccccc3)n(c(=O)s2)C,CN1C(=O)SC=2C1=NC(=NC2NC(C)(C)CO)SCC=3C=CC=CC3,-7.098644900000001
HQCATLASGMCXLR-UHFFFAOYSA-N,,Cc1cccc(C)c1-c1cc(C(N)=O)c(NC(N)=O)s1,Cc1cccc(c1c2cc(c(s2)NC(=O)N)C(=O)N)C,CC=1C=CC=C(C1C2=CC(=C(S2)NC(=O)N)C(=O)N)C,-4.6420652
HQEMUQNZGCZHHN-UHFFFAOYSA-N,"Thiourea, 3-(nitrophenyl)-",NC(=S)Nc1cccc([N+](=O)[O-])c1,c1cc(cc(c1)[N+](=O)[O-])NC(=S)N,S=C(NC1=CC(=CC=C1)[N+](=O)[O-])N,-1.44995
HQHCYKULIHKCEB-UHFFFAOYSA-N,"1,12-Dodecanedicarboxylic acid",O=C(O)CCCCCCCCCCCCC(=O)O,C(CCCCCCC(=O)O)CCCCCC(=O)O,OC(=O)CCCCCCCCCCCCC(=O)O,-3.1111
HQJQYILBCQPYBI-UHFFFAOYSA-N,"4,4'-Dibromobiphenyl",Brc1ccc(-c2ccc(Br)cc2)cc1,c1cc(ccc1c2ccc(cc2)Br)Br,C1(=CC=C(C=C1)Br)C2=CC=C(C=C2)Br,-7.74
HQKJYAGNQSMRJK-UHFFFAOYSA-N,"2-(1,1-dioxothiazinan-2-yl)acetic acid",O=C(O)CN1CCCCS1(=O)=O,C1CCS(=O)(=O)N(C1)CC(=O)O,S1(=O)(=O)N(CCCC1)CC(=O)O,-0.5875
HQKQRXZEXPXXIG-UHFFFAOYSA-N,Cedryl acetate,CC(=O)OC1(C)CCC23CC1C(C)(C)[C@@H]2CC[C@H]3C,C[C@@H]1CC[C@@H]2C13CCC(C(C3)C2(C)C)(C)OC(=O)C,C[C@@H]1CC[C@@H]2C13CC(C2(C)C)C(CC3)(C)OC(=O)C,-5.42682052
HQLKZWRSOHTERR-UHFFFAOYSA-N,"1-Butanol, 2-ethyl-, acetate",CCC(CC)COC(C)=O,CCC(CC)COC(=O)C,CCC(CC)COC(=O)C,-1.3529
HQMNCQVAMBCHCO-UHFFFAOYSA-N,etretinate,CCOC(=O)/C=C(C)/C=C/C=C(C)/C=C/c1c(C)cc(OC)c(C)c1C,CCOC(=O)/C=C(\C)/C=C/C=C(\C)/C=C/c1c(cc(c(c1C)C)OC)C,CCOC(=O)/C=C(\C)/C=C/C=C(\C)/C=C/C1=C(C(=C(C=C1C)OC)C)C,-5.470410491
HQNJZCSCNOSIGA-UHFFFAOYSA-N,1-ETHYLCARBAMOYL-5-FLUOROURACIL;  1-Ethylaminocarbonyl-5-fluorouracil,CCNC(=O)n1cc(F)c(=O)[nH]c1=O,CCNC(=O)n1cc(c(=O)[nH]c1=O)F,CCNC(=O)N1C=C(C(=O)NC1=O)F,-2.13
HQNVEIHDRGMYHS-UHFFFAOYSA-N,,N#Cc1ccc(C(=O)NCCOCc2ccccc2F)cc1,c1ccc(c(c1)COCCNC(=O)c2ccc(cc2)C#N)F,FC=1C=CC=CC1COCCNC(=O)C=2C=CC(=CC2)C#N,-3.3098039
HQOGSHAKAPZPGI-UHFFFAOYSA-N,,COc1cc2c(Nc3c(Cl)ccc4c3OCO4)ncnc2cc1OCCn1cccc1,COc1cc2c(cc1OCCn3cccc3)ncnc2Nc4c(ccc5c4OCO5)Cl,COC=1C=C2C(=NC=NC2=CC1OCCN3C=CC=C3)NC=4C5=C(C=CC4Cl)OCO5,-5.721246400000001
HQOVXPHOJANJBR-UHFFFAOYSA-N,Di-tert-butyl sec-butylidene diperoxide,CCC(C)(OOC(C)(C)C)OOC(C)(C)C,CCC(C)(OOC(C)(C)C)OOC(C)(C)C,CCC(C)(OOC(C)(C)C)OOC(C)(C)C,-4.45088046
HQPQWDCOALZSAB-UHFFFAOYSA-N,,COc1cc(OC2CCN(C)CC2)c2c(Nc3ccc4[nH]cc(Cl)c4c3)ncnc2c1,CN1CCC(CC1)Oc2cc(cc3c2c(ncn3)Nc4ccc5c(c4)c(c[nH]5)Cl)OC,COC=1C=C(C=2C(=NC=NC2C1)NC=3C=CC=4NC=C(C4C3)Cl)OC5CCN(CC5)C,-5.35164
HQQPOVNESMNPNH-UHFFFAOYSA-N,3-(4-Isopropylphenyl)-2-methylpropanal,CC(C)c1ccc(C(C)CC=O)cc1,CC(C)c1ccc(cc1)C(C)CC=O,CC(C)C=1C=CC(=CC1)C(C)CC=O,-3.459931451
HQRHGJNQIJMJIK-UHFFFAOYSA-N,,Cc1cccc(Nc2nc(Nc3ccc(OCC(O)CNC(C)(C)C)cc3)ncc2Br)n1,Cc1cccc(n1)Nc2c(cnc(n2)Nc3ccc(cc3)OCC(CNC(C)(C)C)O)Br,CC=1C=CC=C(N1)NC=2N=C(N=CC2Br)NC=3C=CC(=CC3)OCC(O)CNC(C)(C)C,-4.60206
HQSOHEURLMFXBX-UHFFFAOYSA-N,"3-(3,5-di-tert-butyl-4-hydroxyphenyl)-N-octadecylpropanamide",CCCCCCCCCCCCCCCCCCNC(=O)CCc1cc(C(C)(C)C)c(O)c(C(C)(C)C)c1,CCCCCCCCCCCCCCCCCCNC(=O)CCc1cc(c(c(c1)C(C)(C)C)O)C(C)(C)C,CCCCCCCCCCCCCCCCCCNC(=O)CCC=1C=C(C(=C(C1)C(C)(C)C)O)C(C)(C)C,-7.724094501000001
HQUQLFOMPYWACS-UHFFFAOYSA-N,tris(2-chloroethyl) phosphate,O=P(OCCCl)(OCCCl)OCCCl,C(CCl)OP(=O)(OCCCl)OCCCl,P(=O)(OCCCl)(OCCCl)OCCCl,-1.6105
HQWTXYFZPXAATN-UHFFFAOYSA-N,"2,4,6(1H,3H,5H)-Pyrimidinetrione, 5-methyl-5-(2-",CC(C)CC1(C)C(=O)NC(=O)NC1=O,CC(C)CC1(C(=O)NC(=O)NC1=O)C,C1(C(=O)NC(=O)NC1=O)(CC(C)C)C,-2.042
HQXIRENGEPQUJY-UHFFFAOYSA-N,"disodium 2-[(5-carbamoyl-1-ethyl-2-hydroxy-4-methyl-6-oxo-1,6-dihydropyridin-3-yl)diazenyl]-4-({4-[(2-chloro-5-sulfonatophenyl)amino]-6-fluoro-1,3,5-triazin-2-yl}amino)benzenesulfonate",CCN1C(=O)C(C(N)=O)=C(C)/C(=N/Nc2cc(Nc3nc(F)nc(Nc4cc(S(=O)(=O)O)ccc4Cl)n3)ccc2S(=O)(=O)O)C1=O,CCN1C(=O)C(=C(/C(=N/Nc2cc(ccc2S(=O)(=O)O)Nc3nc(nc(n3)F)Nc4cc(ccc4Cl)S(=O)(=O)O)/C1=O)C)C(=O)N,CCN1C(=O)/C(=N\NC=2C=C(C=CC2S(=O)(=O)O)NC=3N=C(N=C(N3)NC=4C=C(C=CC4Cl)S(=O)(=O)O)F)/C(=C(C1=O)C(=O)N)C,-0.921017192
HQYMUNCIMNFLDT-UHFFFAOYSA-N,phenylmethyl N-(2-amino-2-oxoethyl)carbamate,NC(=O)CNC(=O)OCc1ccccc1,c1ccc(cc1)COC(=O)NCC(=O)N,NC(=O)CNC(=O)OCC1=CC=CC=C1,-1.8795
HQYZAFBZSBFWFA-UHFFFAOYSA-N,,O=S1(=O)CCN(CCCOc2cc(OC3CCOCC3)c3c(Nc4c(Cl)ccc5c4OCO5)ncnc3c2)CC1,c1cc(c(c2c1OCO2)Nc3c4c(cc(cc4OC5CCOCC5)OCCCN6CCS(=O)(=O)CC6)ncn3)Cl,ClC=1C=CC2=C(C1NC=3N=CN=C4C3C(=CC(=C4)OCCCN5CCS(=O)(=O)CC5)OC6CCOCC6)OCO2,-6.0
HRBKVYFZANMGRE-UHFFFAOYSA-N,chlorpyriphos_methyl,COP(=S)(OC)Oc1nc(Cl)c(Cl)cc1Cl,COP(=S)(OC)Oc1c(cc(c(n1)Cl)Cl)Cl,ClC=1C(=CC(=C(N1)OP(=S)(OC)OC)Cl)Cl,-4.8255
HRBPQAGJOGSEFD-UHFFFAOYSA-N,,COc1cc2c(Nc3cnc(NC(=O)c4ccc(F)c(Cl)c4)nc3)ncnc2cc1OCC1CC1C(=O)O,COc1cc2c(cc1OCC3CC3C(=O)O)ncnc2Nc4cnc(nc4)NC(=O)c5ccc(c(c5)Cl)F,COC=1C=C2C(=NC=NC2=CC1OCC3CC3C(=O)O)NC=4C=NC(=NC4)NC(=O)C=5C=CC(=C(C5)Cl)F,-4.1426675
HRCMBQXJXXVUMU-UHFFFAOYSA-N,N - (2 - CHLOROETHYL) - N - NITROSO - N' - [2 -,COC(CNC(=O)N(CCCl)N=O)n1c(=O)[nH]cc(F)c1=O,COC(CNC(=O)N(CCCl)N=O)n1c(=O)c(c[nH]c1=O)F,N1(C(=O)C(=CNC1=O)F)C(CNC(=O)N(N=O)CCCl)OC,-1.9269999999999998
HRDGAIGDKJXHIU-UHFFFAOYSA-N,Tetradecanol,CCCCCCCCCCC(O)CCC,CCCCCCCCCCC(CCC)O,OC(CCC)CCCCCCCCCC,-5.837000000000001
HRDJPEMAGYHSJR-UHFFFAOYSA-N,"4-Isothiocyanato-N,N-dimethylaniline",CN(C)c1ccc(N=C=S)cc1,CN(C)c1ccc(cc1)N=C=S,CN(C)C1=CC=C(C=C1)N=C=S,-4.13
HRGPYCVTDOECMG-UHFFFAOYSA-N,Cedryl methyl ether,CO[C@]1(C)CCC23C[C@@H]1C(C)(C)[C@@H]2CC[C@H]3C,C[C@@H]1CC[C@@H]2C13CC[C@@]([C@H](C3)C2(C)C)(C)OC,CO[C@@]1(CCC23C[C@@H]1C([C@@H]2CC[C@H]3C)(C)C)C,-4.74008859
HRIJEJDKCKJHEG-UHFFFAOYSA-N,"Purine-7-acetamide, N,N-diethyl-1,2,3,6-tetrahyd",CCN(CC)C(=O)Cn1cnc2c1c(=O)n(C)c(=O)n2C,CCN(CC)C(=O)Cn1cnc2c1c(=O)n(c(=O)n2C)C,C12=C(C(=O)N(C(=O)N1C)C)N(C=N2)CC(=O)N(CC)CC,-0.9233
HRIUVVJVHSKNTC-UHFFFAOYSA-N,,COc1cc2c(Nc3cc(Cl)ccc3Cl)ncnc2cc1OCCCN1CCOCC1,COc1cc2c(cc1OCCCN3CCOCC3)ncnc2Nc4cc(ccc4Cl)Cl,COC=1C=C2C(=NC=NC2=CC1OCCCN3CCOCC3)NC=4C=C(C=CC4Cl)Cl,-5.1191864
HRJLKICTDFKLDJ-UHFFFAOYSA-N,,CSCCC(NC(=O)c1ccc(/C=C/Cn2ccnc2)nc1-c1ccc(F)cc1F)C(=O)OC(C)(C)C,CC(C)(C)OC(=O)C(CCSC)NC(=O)c1ccc(nc1c2ccc(cc2F)F)/C=C/Cn3ccnc3,CSCCC(NC(=O)C=1C=CC(=NC1C=2C=CC(=CC2F)F)/C=C/CN3C=CN=C3)C(=O)OC(C)(C)C,-3.7447275
HRJMJUAODFKYBH-UHFFFAOYSA-N,,Cc1nnc(S(=O)(=O)c2ccc(NC(=O)C(C)(O)C(F)(F)F)c(Cl)c2)s1,Cc1nnc(s1)S(=O)(=O)c2ccc(c(c2)Cl)NC(=O)C(C)(C(F)(F)F)O,CC1=NN=C(S1)S(=O)(=O)C=2C=CC(=C(C2)Cl)NC(=O)C(C)(O)C(F)(F)F,-4.3467875
HRJYYPBJDNLUAK-UHFFFAOYSA-N,,COc1cc2ncnc(Nc3ccc(F)c(Cl)c3)c2cc1OCCCN1CC(C)N(C)C(C)C1,CC1CN(CC(N1C)C)CCCOc2cc3c(cc2OC)ncnc3Nc4ccc(c(c4)Cl)F,COC=1C=C2N=CN=C(C2=CC1OCCCN3CC(N(C(C3)C)C)C)NC=4C=CC(=C(C4)Cl)F,-2.9586072999999997
HRKAMJBPFPHCSD-UHFFFAOYSA-N,tris(2-methylpropyl) phosphate,CC(C)COP(=O)(OCC(C)C)OCC(C)C,CC(C)COP(=O)(OCC(C)C)OCC(C)C,CC(C)COP(=O)(OCC(C)C)OCC(C)C,-3.002154647
HRKIBPOFCFRMSH-UHFFFAOYSA-N,,OC(COc1ccc(Nc2cc(Nc3ccc(F)cc3F)ncn2)cc1)CN1CCOCC1,c1cc(ccc1Nc2cc(ncn2)Nc3ccc(cc3F)F)OCC(CN4CCOCC4)O,OC(COC=1C=CC(=CC1)NC=2C=C(N=CN2)NC=3C=CC(=CC3F)F)CN4CCOCC4,-4.7447275
HRRBJVNMSRJFHQ-UHFFFAOYSA-N,naftopidil,COc1ccccc1N1CCN(CC(O)COc2cccc3ccccc23)CC1,COc1ccccc1N2CCN(CC2)CC(COc3cccc4c3cccc4)O,COC1=CC=CC=C1N2CCN(CC2)CC(COC3=CC=CC=4C3=CC=CC4)O,-3.546164402