inchikey,Name,SMILES_stand,SMILES,kekSmiles,logS
DWRCRIMPBCLETK-UHFFFAOYSA-N,"N,N'-bis-Phenylacetyl-cystine",O=C(Cc1ccccc1)NC(CSSCC(NC(=O)Cc1ccccc1)C(=O)O)C(=O)O,c1ccc(cc1)CC(=O)NC(CSSCC(C(=O)O)NC(=O)Cc2ccccc2)C(=O)O,OC(=O)C(CSSCC(NC(=O)CC=1C=CC=CC1)C(=O)O)NC(=O)CC=2C=CC=CC2,-1.8330000000000002
DWRKFAJEBUWTQM-UHFFFAOYSA-N,etaconazole,CCC1COC(Cn2cncn2)(c2ccc(Cl)cc2Cl)O1,CCC1COC(O1)(Cn2cncn2)c3ccc(cc3Cl)Cl,CCC1COC(O1)(CN2C=NC=N2)C=3C=CC(=CC3Cl)Cl,-3.613
DWRMDRMVRCYHAZ-UHFFFAOYSA-N,,Cc1ccc(NC(=O)c2cccc3c2oc2ccccc23)cc1NC(=O)c1ccnc(N2CCCN(C)CC2)c1,Cc1ccc(cc1NC(=O)c2ccnc(c2)N3CCCN(CC3)C)NC(=O)c4cccc5c4oc6c5cccc6,CN1CCCN(CC1)C=2C=C(C=CN2)C(=O)NC=3C=C(C=CC3C)NC(=O)C=4C=CC=C5C4OC6=C5C=CC=C6,-5.7695511
DWRPKPCHCUZUKK-UHFFFAOYSA-N,,COc1cc2c(Nc3ncc(CC(=O)Nc4ccc(F)c(F)c4)s3)ncnc2cc1OCCCNCCN(C)C,CN(C)CCNCCCOc1cc2c(cc1OC)c(ncn2)Nc3ncc(s3)CC(=O)Nc4ccc(c(c4)F)F,COC=1C=C2C(=NC=NC2=CC1OCCCNCCN(C)C)NC3=NC=C(S3)CC(=O)NC=4C=CC(=C(C4)F)F,-3.7670038999999997
DWSBOSCGSYRRAG-UHFFFAOYSA-N,,Cc1cccc(C(CS(=O)(=O)N2CCN(c3ccc(F)cc3)CC2)N(O)C=O)c1,Cc1cccc(c1)C(CS(=O)(=O)N2CCN(CC2)c3ccc(cc3)F)N(C=O)O,CC=1C=CC=C(C1)C(CS(=O)(=O)N2CCN(CC2)C=3C=CC(=CC3)F)N(O)C=O,-4.610833900000001
DWSWCPPGLRSPIT-UHFFFAOYSA-N,"6H-Dibenzo[c,e][1,2]oxaphosphinine 6-oxide",O=[p+]1oc2ccccc2c2ccccc21,c1ccc2c(c1)c3ccccc3[p+](=O)o2,O=[P+]1OC=2C=CC=CC2C3=C1C=CC=C3,-1.7798115680000002
DWSYMNWJOYKKCK-UHFFFAOYSA-N,"Phosphoric acid, butyl diethyl ester",CCCCOP(=O)(OCC)OCC,CCCCOP(=O)(OCC)OCC,P(=O)(OCC)(OCC)OCCCC,-1.1468
DWYWPBYWDAZKNX-UHFFFAOYSA-N,"disodium 2,5-dichloro-4-{3-methyl-5-oxo-4-[(E)-2-(4-sulfonatophenyl)diazen-1-yl]-4,5-dihydro-1H-pyrazol-1-yl}benzene-1-sulfonate",CC1=NN(c2cc(Cl)c(S(=O)(=O)O)cc2Cl)C(=O)C1/N=N/c1ccc(S(=O)(=O)O)cc1,CC1=NN(C(=O)C1/N=N/c2ccc(cc2)S(=O)(=O)O)c3cc(c(cc3Cl)S(=O)(=O)O)Cl,CC1=NN(C(=O)C1/N=N/C=2C=CC(=CC2)S(=O)(=O)O)C=3C=C(C(=CC3Cl)S(=O)(=O)O)Cl,-0.660521385
DXAFYJQMDULBEO-UHFFFAOYSA-N,,CN(C)CC(O)COc1ccc(Nc2ncc(Cl)c(Nc3ccccc3N3CCOCC3)n2)cc1,CN(C)CC(COc1ccc(cc1)Nc2ncc(c(n2)Nc3ccccc3N4CCOCC4)Cl)O,CN(C)CC(O)COC=1C=CC(=CC1)NC=2N=CC(=C(N2)NC=3C=CC=CC3N4CCOCC4)Cl,-4.8239087
DXAYUQSFSFJNKQ-UHFFFAOYSA-N,,COc1cc2ncnc(Nc3ccc(F)c(Cl)c3F)c2cc1OCCCN1CCN(C)CC1,CN1CCN(CC1)CCCOc2cc3c(cc2OC)ncnc3Nc4ccc(c(c4F)Cl)F,COC=1C=C2N=CN=C(C2=CC1OCCCN3CCN(CC3)C)NC=4C=CC(=C(C4F)Cl)F,-3.9586072999999997
DXBHBZVCASKNBY-UHFFFAOYSA-N,BENZ(A)ANTHRACENE,c1ccc2cc3c(ccc4ccccc43)cc2c1,c1ccc2c(c1)ccc3c2cc4ccccc4c3,C=1C=CC=2C=C3C(C=CC4=C3C=CC=C4)=CC2C1,-7.385
DXDPKLIQOAVOAM-UHFFFAOYSA-N,ISOBUTYL  5-FLUOROURACIL-1-CARBOXYLATE;  1-Isobutoxycarbonyl-5-fluorouracil,CC(C)COC(=O)n1cc(F)c(=O)[nH]c1=O,CC(C)COC(=O)n1cc(c(=O)[nH]c1=O)F,CC(C)COC(=O)N1C=C(C(=O)NC1=O)F,-1.89
DXECDJILNIXBML-UHFFFAOYSA-M,"zinc bis(O,O-diisooctyl) bis(dithiophosphate)",CC(C)CCCCCOP(=S)([S-])OCCCCCC(C)C,CC(C)CCCCCOP(=S)(OCCCCCC(C)C)[S-],CC(C)CCCCCOP(=S)([S-])OCCCCCC(C)C,-4.370850733
DXGLGDHPHMLXJC-UHFFFAOYSA-N,2-Benzoyl-5-methoxyphenol,COc1ccc(C(=O)c2ccccc2)c(O)c1,COc1ccc(c(c1)O)C(=O)c2ccccc2,COC=1C=CC(=C(C1)O)C(=O)C=2C=CC=CC2,-4.580253828
DXGXEUGZFMLCGO-UHFFFAOYSA-N,,COc1cc(CC(=O)Nc2cccc(OCCCC(=O)O)c2)cc2oc(Nc3cccc(F)c3)nc12,COc1cc(cc2c1nc(o2)Nc3cccc(c3)F)CC(=O)Nc4cccc(c4)OCCCC(=O)O,COC=1C=C(C=C2C1N=C(O2)NC=3C=CC=C(C3)F)CC(=O)NC=4C=CC=C(C4)OCCCC(=O)O,-3.4814861000000006
DXGXTGYXCFBYDJ-UHFFFAOYSA-N,Me (1-(4-bromo)phenylsulfonyl) cyclobutane carbo,COC(=O)C1(S(=O)(=O)c2ccc(Br)cc2)CCC1,COC(=O)C1(CCC1)S(=O)(=O)c2ccc(cc2)Br,S(=O)(=O)(C1(CCC1)C(=O)OC)C2=CC=C(C=C2)Br,-3.55
DXHSIRLBWUIASL-UHFFFAOYSA-N,,CCN(CC)c1nc(Nc2ccc(S(=O)(=O)NCC3CCCO3)cc2)ncc1C#N,CCN(CC)c1c(cnc(n1)Nc2ccc(cc2)S(=O)(=O)NCC3CCCO3)C#N,CCN(CC)C=1N=C(N=CC1C#N)NC=2C=CC(=CC2)S(=O)(=O)NCC3CCCO3,-6.3372421999999995
DXKGOZFWHSRNCQ-UHFFFAOYSA-N,,N#Cc1ccccc1COc1cc(OCc2c(F)cccc2F)cc(C(=O)Nc2ccc(C(=O)O)cn2)c1,c1ccc(c(c1)COc2cc(cc(c2)OCc3c(cccc3F)F)C(=O)Nc4ccc(cn4)C(=O)O)C#N,OC(=O)C=1C=CC(=NC1)NC(=O)C=2C=C(C=C(C2)OCC=3C(=CC=CC3F)F)OCC=4C=CC=CC4C#N,-3.7212464
DXNCZXXFRKPEPY-UHFFFAOYSA-N,Tridecanedioic acid,O=C(O)CCCCCCCCCCCC(=O)O,C(CCCCCC(=O)O)CCCCCC(=O)O,OC(=O)CCCCCCCCCCCC(=O)O,-2.2119999999999997
DXNNNYXVESIMLS-UHFFFAOYSA-N,,COc1ccc(Oc2nc(Nc3ccc(C(=O)NCCN4CCCCC4)cc3)ncc2F)cc1,COc1ccc(cc1)Oc2c(cnc(n2)Nc3ccc(cc3)C(=O)NCCN4CCCCC4)F,COC=1C=CC(=CC1)OC=2N=C(N=CC2F)NC=3C=CC(=CC3)C(=O)NCCN4CCCCC4,-3.7447275
DXOKYHDVTBTTPS-UHFFFAOYSA-N,,CN1CC(C(=O)Nc2ccc3sc4ccccc4c3c2)CC1=O,CN1CC(CC1=O)C(=O)Nc2ccc3c(c2)c4ccccc4s3,CN1CC(CC1=O)C(=O)NC=2C=CC=3SC=4C=CC=CC4C3C2,-4.853872
DXPANPQGJCJWNV-UHFFFAOYSA-N,,O=C(O)c1ccc(/C=C/c2cccc(Oc3ccccc3)c2)nc1,c1ccc(cc1)Oc2cccc(c2)/C=C/c3ccc(cn3)C(=O)O,OC(=O)C=1C=CC(=NC1)/C=C/C=2C=CC=C(C2)OC=3C=CC=CC3,-3.7958800000000004
DXPOSRCHIDYWHW-UHFFFAOYSA-N,xamoterol hemifumarate,O=C(NCCNCC(O)COc1ccc(O)cc1)N1CCOCC1,c1cc(ccc1O)OCC(CNCCNC(=O)N2CCOCC2)O,C1COCCN1C(=O)NCCNCC(COC2=CC=C(C=C2)O)O,-1.602054528
DXPPIEDUBFUSEZ-UHFFFAOYSA-N,Isooctyl acrylate,C=CC(=O)OCCCCCC(C)C,CC(C)CCCCCOC(=O)C=C,CC(C)CCCCCOC(=O)C=C,-4.1708277339999995
DXQJXZBAFWEDPJ-UHFFFAOYSA-N,,Cc1ccc(Nc2nc(Nc3ccc(OCC(O)CN(C)C)cc3)ncc2Br)cn1,Cc1ccc(cn1)Nc2c(cnc(n2)Nc3ccc(cc3)OCC(CN(C)C)O)Br,CN(C)CC(O)COC=1C=CC(=CC1)NC=2N=CC(=C(N2)NC=3C=CC(=NC3)C)Br,-2.7447275
DXQVFHQUHOFROC-UHFFFAOYSA-N,"1,1'-Methylenebis(4-fluorobenzene)",Fc1ccc(Cc2ccc(F)cc2)cc1,c1cc(ccc1Cc2ccc(cc2)F)F,FC=1C=CC(=CC1)CC=2C=CC(=CC2)F,-6.912078069
DXVZYXLOUWWIOC-UHFFFAOYSA-N,,COCCNCCOc1cc2ncnc(Nc3ccc(NC(=O)c4ccccc4)cc3)c2cc1OC,COCCNCCOc1cc2c(cc1OC)c(ncn2)Nc3ccc(cc3)NC(=O)c4ccccc4,COCCNCCOC=1C=C2N=CN=C(C2=CC1OC)NC=3C=CC(=CC3)NC(=O)C=4C=CC=CC4,-3.7798919
DXWITEOHDUEGQX-UHFFFAOYSA-N,,O=C(Cc1ccc(Cl)cc1)N1CCN(c2ncnc3[nH]cnc23)CC1,c1cc(ccc1CC(=O)N2CCN(CC2)c3c4c([nH]cn4)ncn3)Cl,ClC=1C=CC(=CC1)CC(=O)N2CCN(CC2)C=3N=CN=C4C3N=CN4,-3.7695510999999997
DXXVCXKMSWHGTF-UHFFFAOYSA-N,CHLOMETHOXYNIL,COc1cc(Oc2ccc(Cl)cc2Cl)ccc1[N+](=O)[O-],COc1cc(ccc1[N+](=O)[O-])Oc2ccc(cc2Cl)Cl,ClC=1C(=CC=C(C1)Cl)OC=2C=C(C(=CC2)[N+](=O)[O-])OC,-5.9079999999999995
DYALWCKAJBVSBZ-UHFFFAOYSA-N,"1,8-dihydroxy-4-nitro-5-(phenylamino)-9,10-dihydroanthracene-9,10-dione",O=C1c2c(O)ccc(Nc3ccccc3)c2C(=O)c2c([N+](=O)[O-])ccc(O)c21,c1ccc(cc1)Nc2ccc(c3c2C(=O)c4c(ccc(c4C3=O)O)[N+](=O)[O-])O,OC=1C=CC(=C2C1C(=O)C=3C(=C(C=CC3O)[N+](=O)[O-])C2=O)NC=4C=CC=CC4,-8.646071496
DYCLHZPOADTVKK-UHFFFAOYSA-N,"2-(2-amino-1,3-thiazol-4-yl)acetic acid",Nc1nc(CC(=O)O)cs1,c1c(nc(s1)N)CC(=O)O,NC=1SC=C(N1)CC(=O)O,-1.981836559
DYDDJNLCURKMET-UHFFFAOYSA-N,,Cc1cccc(Nc2nc(Nc3ccc(NCCN4CCCCC4)cc3)ncc2Br)n1,Cc1cccc(n1)Nc2c(cnc(n2)Nc3ccc(cc3)NCCN4CCCCC4)Br,CC=1C=CC=C(N1)NC=2N=C(N=CC2Br)NC=3C=CC(=CC3)NCCN4CCCCC4,-4.60206
DYGCMMCLBCULBL-UHFFFAOYSA-N,4-[2-(4-Tosylureido)pyrimidin-4-yl-amino]benzenesulfonamide,Cc1ccc(S(=O)(=O)NC(=O)Nc2nccc(Nc3ccc(S(N)(=O)=O)cc3)n2)cc1,Cc1ccc(cc1)S(=O)(=O)NC(=O)Nc2nccc(n2)Nc3ccc(cc3)S(=O)(=O)N,CC1=CC=C(C=C1)S(=O)(=O)NC(=O)NC2=NC(=CC=N2)NC3=CC=C(C=C3)S(=O)(=O)N,-4.3
DYGIZCLLGGJWQJ-UHFFFAOYSA-N,11-ethyl-5-methylpentadecanoic acid,CCCCC(CC)CCCCCC(C)CCCC(=O)O,CCCCC(CC)CCCCCC(C)CCCC(=O)O,CCCCC(CC)CCCCCC(C)CCCC(=O)O,-5.056058919
DYGLYJSNAZJJCB-UHFFFAOYSA-N,DIS. A. 1,Cc1cc(N(CCO)CCO)ccc1/N=N/c1ccc([N+](=O)[O-])cc1[N+](=O)[O-],Cc1cc(ccc1/N=N/c2ccc(cc2[N+](=O)[O-])[N+](=O)[O-])N(CCO)CCO,O=[N+]([O-])C1=CC=C(C(=C1)[N+](=O)[O-])/N=N/C2=CC=C(C=C2C)N(CCO)CCO,-6.0
DYJIIMFHSZKBDY-UHFFFAOYSA-N,"2,2-Dimethylpropane-1,3-diyl dibenzoate",CC(C)(COC(=O)c1ccccc1)COC(=O)c1ccccc1,CC(C)(COC(=O)c1ccccc1)COC(=O)c2ccccc2,CC(C)(COC(=O)C=1C=CC=CC1)COC(=O)C=2C=CC=CC2,-5.426602189
DYKFCLLONBREIL-UHFFFAOYSA-N,Minocycline,CN(C)c1ccc(O)c2c1CC1CC3C(N(C)C)C(O)=C(C(N)=O)C(=O)C3(O)C(O)=C1C2=O,CN(C)c1ccc(c2c1CC3CC4C(C(=C(C(=O)C4(C(=C3C2=O)O)O)C(=O)N)O)N(C)C)O,CN(C)C1C2CC3CC4=C(C=CC(=C4C(=O)C3=C(C2(C(=O)C(=C1O)C(=O)N)O)O)O)N(C)C,-0.94
DYNCDVZYZWIVST-UHFFFAOYSA-N,,N#Cc1ccc(-c2cc(C(N)=O)c(N)s2)cc1,c1cc(ccc1C#N)c2cc(c(s2)N)C(=O)N,NC(=O)C=1C=C(SC1N)C=2C=CC(=CC2)C#N,-4.2676062
DYOCFCUPENQNPU-UHFFFAOYSA-N,,Cc1ncc(-c2ccnc(Nc3ccc(S(=O)(=O)NC4CCC4)cc3)n2)n1C,Cc1ncc(n1C)c2ccnc(n2)Nc3ccc(cc3)S(=O)(=O)NC4CCC4,CC1=NC=C(N1C)C=2C=CN=C(N2)NC=3C=CC(=CC3)S(=O)(=O)NC4CCC4,-5.3467875
DYOWZWIWUWQILS-UHFFFAOYSA-N,,O=C(O)c1cc2cc(O)ccc2n1Cc1ccc(C(F)(F)F)c(Cl)c1,c1cc(c(cc1Cn2c3ccc(cc3cc2C(=O)O)O)Cl)C(F)(F)F,OC(=O)C1=CC=2C=C(C=CC2N1CC=3C=CC(=C(C3)Cl)C(F)(F)F)O,-2.4202164
DYPAYBWFSUDJDH-UHFFFAOYSA-N,,CC(C)C(NC(=O)Cn1c(-c2ccccc2)ccc(NS(=O)(=O)c2ccc(Cl)cc2)c1=O)C(O)C(F)(F)C(=O)NCCN(C)C,CC(C)C(C(C(C(=O)NCCN(C)C)(F)F)O)NC(=O)Cn1c(ccc(c1=O)NS(=O)(=O)c2ccc(cc2)Cl)c3ccccc3,CC(C)C(NC(=O)CN1C(=CC=C(C1=O)NS(=O)(=O)C=2C=CC(=CC2)Cl)C=3C=CC=CC3)C(O)C(F)(F)C(=O)NCCN(C)C,-3.7258421999999998
DYRDKSSFIWVSNM-UHFFFAOYSA-N,3-Oxo-N-phenylbutanamide,CC(=O)CC(=O)Nc1ccccc1,CC(=O)CC(=O)Nc1ccccc1,CC(=O)CC(=O)NC=1C=CC=CC1,-1.299040532
DYRYDYQWWQHRQE-UHFFFAOYSA-N,,NC(=O)c1sc(-c2ccccc2)cc1N,c1ccc(cc1)c2cc(c(s2)C(=O)N)N,NC(=O)C=1SC(=CC1N)C=2C=CC=CC2,-4.408935400000001
DYSXLQBUUOPLBB-UHFFFAOYSA-N,DINITROTOLUENE,Cc1cccc([N+](=O)[O-])c1[N+](=O)[O-],Cc1cccc(c1[N+](=O)[O-])[N+](=O)[O-],O=[N+]([O-])C1=C(C(=CC=C1)C)[N+](=O)[O-],-3.113
DYUGTPXLDJQBRB-UHFFFAOYSA-N,dipotassium 2-dodecanamidoacetate 2-tetradecanamidoacetate,CCCCCCCCCCCCCC(=O)NCC(=O)O,CCCCCCCCCCCCCC(=O)NCC(=O)O,CCCCCCCCCCCCCC(=O)NCC(=O)O,-0.34298585
DYUQAZSOFZSPHD-UHFFFAOYSA-N,1-Phenylpropan-1-ol,CCC(O)c1ccccc1,CCC(c1ccccc1)O,CCC(O)C=1C=CC=CC1,-2.340183796
DYVHFPDDBMMBAX-UHFFFAOYSA-N,ditetradecyl but-2-enedioate,CCCCCCCCCCCCCCOC(=O)/C=C/C(=O)OCCCCCCCCCCCCCC,CCCCCCCCCCCCCCOC(=O)/C=C/C(=O)OCCCCCCCCCCCCCC,CCCCCCCCCCCCCCOC(=O)/C=C/C(=O)OCCCCCCCCCCCCCC,-7.007800499
DYVIICOMLFXBLQ-UHFFFAOYSA-N,,CC(C)N(C)CC(O)COc1ccc(Nc2cc(Nc3ccc(F)cc3F)ncn2)cc1,CC(C)N(C)CC(COc1ccc(cc1)Nc2cc(ncn2)Nc3ccc(cc3F)F)O,CC(C)N(C)CC(O)COC=1C=CC(=CC1)NC=2C=C(N=CN2)NC=3C=CC(=CC3F)F,-3.2365720000000002
DYVOARXHOPZBOQ-UHFFFAOYSA-N,"Isonicotinic acid, [3-(5-nitro-2-furyl)allyliden",O=C(N/N=C/C=C/c1ccc([N+](=O)[O-])o1)c1ccncc1,c1cc(oc1/C=C/C=N/NC(=O)c2ccncc2)[N+](=O)[O-],O=C(N/N=C/C=C/C=1OC(=CC1)[N+](=O)[O-])C2=CC=NC=C2,-3.98
DZAWPFCCIZVOPI-UHFFFAOYSA-N,,CCCCC(CC)CNC(=O)c1ccc2c(c1)c(Cc1ccc(C(=O)NS(=O)(=O)c3ccccc3C)cc1OC)cn2C,CCCCC(CC)CNC(=O)c1ccc2c(c1)c(cn2C)Cc3ccc(cc3OC)C(=O)NS(=O)(=O)c4ccccc4C,CCCCC(CC)CNC(=O)C=1C=CC=2N(C=C(C2C1)CC=3C=CC(=CC3OC)C(=O)NS(=O)(=O)C=4C=CC=CC4C)C,-5.1870866
DZBPOCSWCYBLRC-UHFFFAOYSA-N,Boc-Phe-is-Sta-Leu-NH(CH2)3N(CH2CH2OH)2 (analog 22),CC(C)CC(NC(=O)CC(O)C(CC(C)C)NC(=O)C(Cc1c[nH]cn1)NC(=O)C(Cc1ccccc1)NC(=O)OC(C)(C)C)C(=O)NCCCN(CCO)CCO,CC(C)CC(C(CC(=O)NC(CC(C)C)C(=O)NCCCN(CCO)CCO)O)NC(=O)C(Cc1c[nH]cn1)NC(=O)C(Cc2ccccc2)NC(=O)OC(C)(C)C,CC(C)CC(NC(=O)C(CC1=CNC=N1)NC(=O)C(CC2=CC=CC=C2)NC(=O)OC(C)(C)C)C(O)CC(=O)NC(CC(C)C)C(=O)NCCCN(CCO)CCO,-2.37
DZBUGLKDJFMEHC-UHFFFAOYSA-N,Acridine,c1ccc2nc3ccccc3cc2c1,c1ccc2c(c1)cc3ccccc3n2,N1=C2C(C=CC=C2)=CC3=C1C=CC=C3,-3.67
DZCLQFXWJZWJGF-UHFFFAOYSA-N,,O=CN(O)C(CCc1ccccn1)CS(=O)(=O)N1CCN(c2ccc(F)cc2)CC1,c1ccnc(c1)CCC(CS(=O)(=O)N2CCN(CC2)c3ccc(cc3)F)N(C=O)O,ON(C=O)C(CCC=1C=CC=CN1)CS(=O)(=O)N2CCN(CC2)C=3C=CC(=CC3)F,-4.154902
DZDKJIRUSJXCKT-UHFFFAOYSA-N,,COc1ccc(NC(=O)N(C)CC2OCc3cn(nn3)CCCC(=O)N(C(C)CO)CC2C)c(OC)c1,CC1CN(C(=O)CCCn2cc(nn2)COC1CN(C)C(=O)Nc3ccc(cc3OC)OC)C(C)CO,COC1=CC=C(C(=C1)OC)NC(=O)N(C)CC2OCC3=CN(N=N3)CCCC(=O)N(CC2C)C(C)CO,-4.0
DZGCLBBAVXLTPU-UHFFFAOYSA-N,,COc1cc2c(Nc3cnc(NC(=O)c4ccc(Cl)cc4)nc3)ncnc2cc1OCCCN1CCOCC1,COc1cc2c(cc1OCCCN3CCOCC3)ncnc2Nc4cnc(nc4)NC(=O)c5ccc(cc5)Cl,COC=1C=C2C(=NC=NC2=CC1OCCCN3CCOCC3)NC=4C=NC(=NC4)NC(=O)C=5C=CC(=CC5)Cl,-5.3467875
DZGWFCGJZKJUFP-UHFFFAOYSA-N,Tyramine,NCCc1ccc(O)cc1,c1cc(ccc1CCN)O,NCCC=1C=CC(=CC1)O,-1.12
DZIHTWJGPDVSGE-UHFFFAOYSA-N,"4,4'-Methylenebis(cyclohexylamine)",NC1CCC(CC2CCC(N)CC2)CC1,C1CC(CCC1CC2CCC(CC2)N)N,NC1CCC(CC1)CC2CCC(CC2)N,-1.62400174
DZKXJUASMGQEMA-UHFFFAOYSA-N,Tetradecyl tetradecanoate,CCCCCCCCCCCCCCOC(=O)CCCCCCCCCCCCC,CCCCCCCCCCCCCCOC(=O)CCCCCCCCCCCCC,CCCCCCCCCCCCCCOC(=O)CCCCCCCCCCCCC,-7.327053741
DZLAXRNIYVLCBQ-UHFFFAOYSA-N,,COCCN1CCC(Oc2cccc(C(=O)Nc3cc(NC(=O)c4cc(F)cc(N5CCOCC5)c4)ccc3Cl)c2)CC1,COCCN1CCC(CC1)Oc2cccc(c2)C(=O)Nc3cc(ccc3Cl)NC(=O)c4cc(cc(c4)F)N5CCOCC5,COCCN1CCC(CC1)OC=2C=CC=C(C2)C(=O)NC=3C=C(C=CC3Cl)NC(=O)C=4C=C(C=C(C4)N5CCOCC5)F,-4.721648
DZLFLBLQUQXARW-UHFFFAOYSA-N,tetrabutylazanium bromide,CCCC[N+](CCCC)(CCCC)CCCC,CCCC[N+](CCCC)(CCCC)CCCC,CCCC[N+](CCCC)(CCCC)CCCC,1.332012422
DZNHJKRFPBNGMM-UHFFFAOYSA-N,Verapamil,CN(C)CCC=C1C2CCCCC2CCC2CCCCC12,CN(C)CCC=C1C2CCCCC2CCC3C1CCCC3,CN(C)CCC=C1C2C(CCCC2)CCC3C1CCCC3,-3.9760000000000004
DZNOYNAVIGLCIO-UHFFFAOYSA-N,,CC(O)(C(=O)Nc1ccc(S(C)(=O)=O)cc1Cl)C(F)(F)F,CC(C(=O)Nc1ccc(cc1Cl)S(=O)(=O)C)(C(F)(F)F)O,CC(O)(C(=O)NC=1C=CC(=CC1Cl)S(=O)(=O)C)C(F)(F)F,-3.067009
DZNVIZQPWLDQHI-UHFFFAOYSA-N,"3,7-dimethyloct-6-en-1-yl formate",CC(C)=CCCC(C)CCOC=O,CC(CCC=C(C)C)CCOC=O,CC(CCOC=O)CCC=C(C)C,-4.055980416000001
DZPAQLHIDOYCNQ-UHFFFAOYSA-N,N-(4-chlorophenyl)-2-[(4-methyl-2-nitrophenyl)diazenyl]-3-oxobutanamide,CC(=O)C(/N=N/c1ccc(C)cc1[N+](=O)[O-])C(=O)Nc1ccc(Cl)cc1,Cc1ccc(c(c1)[N+](=O)[O-])/N=N/C(C(=O)C)C(=O)Nc2ccc(cc2)Cl,CC(=O)C(/N=N/C=1C=CC(=CC1[N+](=O)[O-])C)C(=O)NC=2C=CC(=CC2)Cl,-7.605149047
DZQVFHSCSRACSX-UHFFFAOYSA-N,sulfaperine,Cc1cnc(NS(=O)(=O)c2ccc(N)cc2)nc1,Cc1cnc(nc1)NS(=O)(=O)c2ccc(cc2)N,S(=O)(=O)(NC=1N=CC(=CN1)C)C=2C=CC(=CC2)N,-2.82
DZRIWTKXHLXUTO-UHFFFAOYSA-N,,CC1CN(C(C)CO)C(=O)CCCn2nncc2COC1CN(C)C(=O)c1cc(-c2ccccc2)on1,CC1CN(C(=O)CCCn2c(cnn2)COC1CN(C)C(=O)c3cc(on3)c4ccccc4)C(C)CO,CC(CO)N1CC(C(OCC2=CN=NN2CCCC1=O)CN(C)C(=O)C=3C=C(ON3)C4=CC=CC=C4)C,-4.0
DZTAMKSLVMHVAT-UHFFFAOYSA-N,,NC(=O)c1cc(-c2ccccc2)sc1NC(=O)CNCCc1ccc(S(N)(=O)=O)cc1,c1ccc(cc1)c2cc(c(s2)NC(=O)CNCCc3ccc(cc3)S(=O)(=O)N)C(=O)N,NC(=O)C=1C=C(SC1NC(=O)CNCCC=2C=CC(=CC2)S(=O)(=O)N)C=3C=CC=CC3,-5.853872
DZTHIGRZJZPRDV-UHFFFAOYSA-N,N-acetyl-DL-tryptophan,CC(=O)N[C@@H](Cc1c[nH]c2ccccc12)C(=O)O,CC(=O)N[C@@H](Cc1c[nH]c2c1cccc2)C(=O)O,O=C(O)C(NC(=O)C)CC=1C=2C(NC1)=CC=CC2,-2.311
DZUFZTJJZZDXDQ-UHFFFAOYSA-N,,CSc1cc(CC(=O)NC(CC(C)C)C(=O)NC(CC(=O)O)c2ccc3c(c2)OCO3)cc2oc(Nc3ccccc3)nc12,CC(C)CC(C(=O)NC(CC(=O)O)c1ccc2c(c1)OCO2)NC(=O)Cc3cc4c(c(c3)SC)nc(o4)Nc5ccccc5,CSC=1C=C(C=C2C1N=C(O2)NC=3C=CC=CC3)CC(=O)NC(CC(C)C)C(=O)NC(CC(=O)O)C=4C=CC5=C(C4)OCO5,-4.3565473
DZVRTQFGBVJLMA-UHFFFAOYSA-N,,OC1(c2ccc(C#Cc3ccccc3)cc2)CN2CCC1CC2,c1ccc(cc1)C#Cc2ccc(cc2)C3(CN4CCC3CC4)O,OC1(CN2CCC1CC2)C=3C=CC(=CC3)C#CC=4C=CC=CC4,-3.8411739999999996
DZWPINCQEKFPBR-UHFFFAOYSA-N,,COc1cc2c(Nc3ccc(Oc4ccccc4OCC(=O)NC4CC4)cc3)c(C#N)cnc2cc1OCCCCN1CCCCC1,COc1cc2c(cc1OCCCCN3CCCCC3)ncc(c2Nc4ccc(cc4)Oc5ccccc5OCC(=O)NC6CC6)C#N,COC=1C=C2C(=C(C=NC2=CC1OCCCCN3CCCCC3)C#N)NC=4C=CC(=CC4)OC=5C=CC=CC5OCC(=O)NC6CC6,-5.0
DZZWHBIBMUVIIW-UHFFFAOYSA-N,sparfloxacin,C[C@H]1CN(c2c(F)c(N)c3c(=O)c(C(=O)O)cn(C4CC4)c3c2F)C[C@@H](C)N1,C[C@H]1CN(C[C@H](N1)C)c2c(c(c3c(c2F)n(cc(c3=O)C(=O)O)C4CC4)N)F,FC=1C(=C(C=2N(C=C(C(=O)C2C1N)C(=O)O)C3CC3)F)N4C[C@H](N[C@H](C4)C)C,-3.3705
FAAKQHWYELHYCG-UHFFFAOYSA-N,[1-[(6-chloropyridin-3-yl)methyl]-3-methylimidazolidin-2-ylidene]cyanamide,CN1CCN(Cc2ccc(Cl)nc2)/C1=N\C#N,CN\1CCN(/C1=N\C#N)Cc2ccc(nc2)Cl,N1(/C(=N\C#N)/N(CC1)C)CC2=CN=C(C=C2)Cl,-2.1315
FABPRXSRWADJSP-UHFFFAOYSA-N,moxifloxacin hydrochloride,COc1c(N2C[C@@H]3CCCN[C@@H]3C2)c(F)cc2c(=O)c(C(=O)O)cn(C3CC3)c12,COc1c2c(cc(c1N3C[C@@H]4CCCN[C@@H]4C3)F)c(=O)c(cn2C5CC5)C(=O)O,COC1=C2C(=CC(=C1N3C[C@@H]4CCCN[C@@H]4C3)F)C(=O)C(=CN2C5CC5)C(=O)O,-1.202032334
FADLXDRQYOVKIH-UHFFFAOYSA-N,,O=C1OC(CO)CN1c1cc(F)c(C2=CCS(=O)(=O)CC2)c(F)c1,c1c(cc(c(c1F)C2=CCS(=O)(=O)CC2)F)N3CC(OC3=O)CO,OCC1CN(C(=O)O1)C=2C=C(C(=C(C2)F)C3=CCS(=O)(=O)CC3)F,-3.2676062000000003
FAEKWTJYAYMJKF-UHFFFAOYSA-N,repaglinide,CCOc1cc(CC(=O)N[C@@H](CC(C)C)c2ccccc2N2CCCCC2)ccc1C(=O)O,CCOc1cc(ccc1C(=O)O)CC(=O)N[C@@H](CC(C)C)c2ccccc2N3CCCCC3,CCOC1=C(C=CC(=C1)CC(=O)N[C@@H](CC(C)C)C2=CC=CC=C2N3CCCCC3)C(=O)O,-4.0556036980000005
FAFGHLPWSSNHCW-UHFFFAOYSA-N,,CCc1ncc(-c2ccnc(Nc3ccc(S(=O)(=O)NCCOC)cc3)n2)n1C,CCc1ncc(n1C)c2ccnc(n2)Nc3ccc(cc3)S(=O)(=O)NCCOC,CCC1=NC=C(N1C)C=2C=CN=C(N2)NC=3C=CC(=CC3)S(=O)(=O)NCCOC,-4.05061
FAGUFWYHJQFNRV-UHFFFAOYSA-N,TETRAETHYLENEPENTAMINE,NCCNCCNCCNCCN,C(CNCCNCCNCCN)N,NCCNCCNCCNCCN,0.723
FAHWLCJSOCWNSM-UHFFFAOYSA-N,,CC(C)NCC(O)COc1ccc(Nc2ncc(Br)c(Nc3ccc4c(c3)CCC4)n2)cc1,CC(C)NCC(COc1ccc(cc1)Nc2ncc(c(n2)Nc3ccc4c(c3)CCC4)Br)O,CC(C)NCC(O)COC=1C=CC(=CC1)NC=2N=CC(=C(N2)NC=3C=CC4=C(C3)CCC4)Br,-5.0409586
FAIIFDPAEUKBEP-UHFFFAOYSA-N,nilvadipine,COC(=O)C1=C(C#N)NC(C)=C(C(=O)OC(C)C)C1c1cccc([N+](=O)[O-])c1,CC1=C(C(C(=C(N1)C#N)C(=O)OC)c2cccc(c2)[N+](=O)[O-])C(=O)OC(C)C,CC1=C(C(C(=C(N1)C#N)C(=O)OC)C2=CC(=CC=C2)[N+](=O)[O-])C(=O)OC(C)C,-5.471934551
FAJMLPDJSPOGRN-UHFFFAOYSA-N,,COc1cc2ncnc(Nc3cccc(Cl)c3F)c2cc1OCCCn1ccnc1,COc1cc2c(cc1OCCCn3ccnc3)c(ncn2)Nc4cccc(c4F)Cl,COC=1C=C2N=CN=C(C2=CC1OCCCN3C=CN=C3)NC=4C=CC=C(C4F)Cl,-5.49485
FAKRSMQSSFJEIM-UHFFFAOYSA-N,captopril,C[C@H](CS)C(=O)N1CCC[C@H]1C(=O)O,C[C@H](CS)C(=O)N1CCC[C@H]1C(=O)O,C[C@H](CS)C(=O)N1CCC[C@H]1C(=O)O,-0.132919757
FALIDGHDVCQKKJ-UHFFFAOYSA-O,,Cc1cc2ccccc2[n+]2nn(-c3ccc(OC(F)(F)F)cc3)c(O)c12,Cc1cc2ccccc2[n+]3c1c(n(n3)c4ccc(cc4)OC(F)(F)F)O,FC(F)(F)OC=1C=CC(=CC1)N2C(=C3[N+](=N2)C=4C(C=C3C)=CC=CC4)O,-5.9745406999999995
FAMJUFMHYAFYNU-UHFFFAOYSA-N,1-Methyl-4-propan-2-ylcyclohexene,CC1=CCC(C(C)C)CC1,CC1=CCC(CC1)C(C)C,CC(C)C1CCC(=CC1)C,-5.252671969
FANLHXKNWWSLIG-UHFFFAOYSA-N,N-(4-carbamoylphenyl)-4-nitrobenzamide,NC(=O)c1ccc(NC(=O)c2ccc([N+](=O)[O-])cc2)cc1,c1cc(ccc1C(=O)N)NC(=O)c2ccc(cc2)[N+](=O)[O-],NC(=O)C=1C=CC(=CC1)NC(=O)C=2C=CC(=CC2)[N+](=O)[O-],-4.9368627080000005
FAOUXYKJZZCWLE-UHFFFAOYSA-N,,N#Cc1ccc(/C=C(\Cn2ccnc2)c2ncc(C(=O)NCCc3ccccc3)s2)cc1,c1ccc(cc1)CCNC(=O)c2cnc(s2)/C(=C/c3ccc(cc3)C#N)/Cn4ccnc4,O=C(NCCC=1C=CC=CC1)C2=CN=C(S2)/C(=C/C=3C=CC(=CC3)C#N)/CN4C=CN=C4,-5.74958
FAOZLTXFLGPHNG-UHFFFAOYSA-N,fluorometholone,CC(=O)[C@@]1(O)CC[C@H]2[C@@H]3C[C@H](C)C4=CC(=O)C=C[C@]4(C)[C@@]3(F)[C@@H](O)C[C@@]21C,C[C@H]1C[C@H]2[C@@H]3CC[C@@]([C@]3(C[C@@H]([C@@]2([C@@]4(C1=CC(=O)C=C4)C)F)O)C)(C(=O)C)O,FC12C(C3C(C(CC3)(O)C(=O)C)(CC1O)C)CC(C4=CC(=O)C=CC24C)C,-4.0995
FAPHMRFFDAVLKM-UHFFFAOYSA-N,,CC(C)CC(NC(=O)Cc1ccc2nc(Nc3ccc(Oc4ccccc4)cc3)oc2c1)C(=O)NC(CC(=O)O)c1ccc2c(c1)OCO2,CC(C)CC(C(=O)NC(CC(=O)O)c1ccc2c(c1)OCO2)NC(=O)Cc3ccc4c(c3)oc(n4)Nc5ccc(cc5)Oc6ccccc6,CC(C)CC(NC(=O)CC=1C=CC=2N=C(OC2C1)NC=3C=CC(=CC3)OC=4C=CC=CC4)C(=O)NC(CC(=O)O)C=5C=CC6=C(C5)OCO6,-4.4436975
FAQJJMHZNSSFSM-UHFFFAOYSA-N,BENZOYLFORMIC ACID,O=C(O)C(=O)c1ccccc1,c1ccc(cc1)C(=O)C(=O)O,OC(=O)C(=O)C1=CC=CC=C1,0.20865
FARSXMMESQDZMY-UHFFFAOYSA-N,"4-Chloro-N,N-dimethylbenzamide",CN(C)C(=O)c1ccc(Cl)cc1,CN(C)C(=O)c1ccc(cc1)Cl,CN(C)C(=O)C1=CC=C(C=C1)Cl,-0.998
FASDKYOPVNHBLU-UHFFFAOYSA-N,pramipexole dihydrochloride,CCCN[C@H]1CCc2nc(N)sc2C1,CCCN[C@H]1CCc2c(sc(n2)N)C1,CCCN[C@H]1CCC2=C(SC(=N2)N)C1,-1.1526704779999999
FASSDKYMEWBHFQ-UHFFFAOYSA-N,,COc1cc2c(Nc3cnc(C(=O)NCCC(C)C)nc3)ncnc2cc1OCCCN1CCOCC1,CC(C)CCNC(=O)c1ncc(cn1)Nc2c3cc(c(cc3ncn2)OCCCN4CCOCC4)OC,COC=1C=C2C(=NC=NC2=CC1OCCCN3CCOCC3)NC=4C=NC(=NC4)C(=O)NCCC(C)C,-5.5086383
FATBKZJZAHWCSL-UHFFFAOYSA-N,"2,3,5,6-TETRACHLOROPYRIDINE",Clc1cc(Cl)c(Cl)nc1Cl,c1c(c(nc(c1Cl)Cl)Cl)Cl,ClC=1C=C(C(=NC1Cl)Cl)Cl,-3.8614246910000003
FAUAZXVRLVIARB-UHFFFAOYSA-N,"4-({4-[bis(oxiran-2-ylmethyl)amino]phenyl}methyl)-N,N-bis(oxiran-2-ylmethyl)aniline",c1cc(N(CC2CO2)CC2CO2)ccc1Cc1ccc(N(CC2CO2)CC2CO2)cc1,c1cc(ccc1Cc2ccc(cc2)N(CC3CO3)CC4CO4)N(CC5CO5)CC6CO6,C1OC1CN(CC2CO2)C=3C=CC(=CC3)CC=4C=CC(=CC4)N(CC5CO5)CC6CO6,-4.662032292
FAZPZNCEAZRGPY-UHFFFAOYSA-N,"6-(2,2-Dimethylpropanoyloxy)-2-sulfamoylbenzothiazole",CC(C)(C)C(=O)Oc1ccc2nc(S(N)(=O)=O)sc2c1,CC(C)(C)C(=O)Oc1ccc2c(c1)sc(n2)S(=O)(=O)N,CC(C)(C)C(=O)OC1=CC2=C(C=C1)N=C(S2)S(=O)(=O)N,-3.73
FBBVJXMXGVHARA-UHFFFAOYSA-N,Cyclohexylmercapto-acetic acid,O=C(O)CSC1CCCCC1,C1CCC(CC1)SCC(=O)O,OC(=O)CSC1CCCCC1,-1.33805
FBCFYDPJMWEFAB-UHFFFAOYSA-N,1-IODONAPHTHALENE,IC1CCCC2CCCCC12,C1CCC2C(C1)CCCC2I,C12C(CCCC1CCCC2)I,-4.55
FBEHFRAORPEGFH-UHFFFAOYSA-N,Allyxycarb [BSI:ISO],C=CCN(CC=C)c1c(C)cc(OC(=O)NC)cc1C,Cc1cc(cc(c1N(CC=C)CC=C)C)OC(=O)NC,CNC(=O)OC=1C=C(C(=C(C1)C)N(CC=C)CC=C)C,-3.5931
FBEPFGKUHGVRNU-UHFFFAOYSA-N,"2,4(1H,3H)-Pteridinedione, 7-hydroxy-1,6-dimethy",Cc1nc2c(=O)[nH]c(=O)n(C)c2[nH]c1=O,Cc1c(=O)[nH]c2c(n1)c(=O)[nH]c(=O)n2C,C12=C(N=C(C(=O)N1)C)C(=O)NC(=O)N2C,-2.293
FBFBNGJZFXSFFY-UHFFFAOYSA-N,"Propanoic acid, 3,3'-sulfonylbis-",O=C(O)CCS(=O)(=O)CCC(=O)O,C(CS(=O)(=O)CCC(=O)O)C(=O)O,C(=O)(CCS(=O)(=O)CCC(=O)O)O,-1.9669999999999999