inchikey,Name,SMILES_stand,SMILES,kekSmiles,logS
HRRSWWQXXDHISF-UHFFFAOYSA-N,,COc1cc2c(Nc3ccc(Oc4ccccc4OC)cc3)c(C#N)cnc2cc1OCC(O)CNC1CC1,COc1ccccc1Oc2ccc(cc2)Nc3c4cc(c(cc4ncc3C#N)OCC(CNC5CC5)O)OC,COC=1C=CC=CC1OC=2C=CC(=CC2)NC=3C(=CN=C4C3C=C(C(=C4)OCC(O)CNC5CC5)OC)C#N,-4.2218487
HRVUKLBFRPWXPJ-UHFFFAOYSA-N,"1,2,4-trichlorooxanthrene",Clc1cc(Cl)c2c(c1Cl)Oc1ccccc1O2,c1ccc2c(c1)Oc3c(cc(c(c3O2)Cl)Cl)Cl,ClC=1C=C(C2=C(C1Cl)OC3=C(C=CC=C3)O2)Cl,-7.58
HSBSUGYTMJWPAX-UHFFFAOYSA-N,2-Hexenedioic acid,O=C(O)/C=C/CCC(=O)O,C(CC(=O)O)/C=C/C(=O)O,OC(=O)CC/C=C/C(=O)O,-1.204
HSGYYWSMLDCHQO-UHFFFAOYSA-N,,CC(C)Cn1c(=O)n(C)c(=O)c2cn(Cc3cccc4ccccc34)cc21,CC(C)Cn1c2cn(cc2c(=O)n(c1=O)C)Cc3cccc4c3cccc4,C=1C=CC=C2C1C=CC=C2CN3C=C4C(=O)N(C(=O)N(C4=C3)CC(C)C)C,-5.9969408
HSHGZXNAXBPPDL-UHFFFAOYSA-N,"(6R,7R)-3-[(acetyloxy)methyl]-7-amino-8-oxo-5-thia-1-azabicyclo[4.2.0]oct-2-ene-2-carboxylic acid",CC(=O)OCC1=C(C(=O)O)N2C(=O)[C@@H](N)[C@H]2SC1,CC(=O)OCC1=C(N2[C@@H]([C@@H](C2=O)N)SC1)C(=O)O,CC(=O)OCC1=C(N2[C@H](SC1)[C@@H](C2=O)N)C(=O)O,-2.648988861
HSHNBQLRCVKZRO-UHFFFAOYSA-N,,Cc1ccc(NC(=O)c2cccc(N3CCOCC3)c2)cc1NC(=O)c1cccc(OC2CCNCC2)c1,Cc1ccc(cc1NC(=O)c2cccc(c2)OC3CCNCC3)NC(=O)c4cccc(c4)N5CCOCC5,CC=1C=CC(=CC1NC(=O)C=2C=CC=C(C2)OC3CCNCC3)NC(=O)C=4C=CC=C(C4)N5CCOCC5,-3.1079054
HSLFISVKRDQEBY-UHFFFAOYSA-N,"1,1-Bis(tert-butylperoxy)cyclohexane",CC(C)(C)OOC1(OOC(C)(C)C)CCCCC1,CC(C)(C)OOC1(CCCCC1)OOC(C)(C)C,CC(C)(C)OOC1(CCCCC1)OOC(C)(C)C,-5.386213837000001
HSMPDPBYAYSOBC-UHFFFAOYSA-N,khellin;  amicardine,COc1c2occc2c(OC)c2c(=O)cc(C)oc12,Cc1cc(=O)c2c(o1)c(c3c(c2OC)cco3)OC,COC=1C=2OC=CC2C(=C3C1OC(=CC3=O)C)OC,-2.4
HSMVPDGQOIQYSR-UHFFFAOYSA-N,Triflumizole,CCCOC/C(=N\c1ccc(Cl)cc1C(F)(F)F)n1ccnc1,CCCOC/C(=N\c1ccc(cc1C(F)(F)F)Cl)/n2ccnc2,N1(C=NC=C1)/C(=N/C=2C(=CC(=CC2)Cl)C(F)(F)F)/COCCC,-1.442
HSNNLWPVPBKGQW-UHFFFAOYSA-N,1-(3-methoxyphenyl)-~{N}-[1-(2-methoxyphenyl)propan-2-yl]propan-2-amine,COc1cccc(CC(C)NC(C)Cc2ccccc2OC)c1,CC(Cc1cccc(c1)OC)NC(C)Cc2ccccc2OC,COC1=CC=CC(=C1)CC(C)NC(C)CC2=C(C=CC=C2)OC,-3.0
HSOMNBKXPGCNBH-UHFFFAOYSA-N,3-ETHYL-3-METHYLHEPTANE,CCCCC(C)(CC)CC,CCCCC(C)(CC)CC,CCCCC(C)(CC)CC,-6.28
HSQFVBWFPBKHEB-UHFFFAOYSA-N,"2,3,4-Trichlorophenol",Oc1ccc(Cl)c(Cl)c1Cl,c1cc(c(c(c1O)Cl)Cl)Cl,OC=1C=CC(=C(C1Cl)Cl)Cl,-2.67
HSRJKNPTNIJEKV-UHFFFAOYSA-N,guaifenesin;  guaiphenesin;  glyceryl  guaiacolate,COc1ccccc1OCC(O)CO,COc1ccccc1OCC(CO)O,O(CC(O)CO)C1=CC=CC=C1OC,-0.6
HSRSXAWVKPRTFN-UHFFFAOYSA-N,,COc1cc2ncnc(Nc3ccc(F)c(Cl)c3)c2cc1OC1CCN(CC#N)CC1,COc1cc2c(cc1OC3CCN(CC3)CC#N)c(ncn2)Nc4ccc(c(c4)Cl)F,COC=1C=C2N=CN=C(C2=CC1OC3CCN(CC3)CC#N)NC=4C=CC(=C(C4)Cl)F,-6.3705904
HSSBORCLYSCBJR-UHFFFAOYSA-N,chloramben,Nc1cc(Cl)cc(C(=O)O)c1Cl,c1c(cc(c(c1C(=O)O)Cl)N)Cl,O=C(O)C1=C(C(=CC(=C1)Cl)N)Cl,-2.47
HSSLDCABUXLXKM-UHFFFAOYSA-N,Resorufin,O=c1ccc2nc3ccc(O)cc3oc-2c1,c1cc2c(cc1O)oc-3cc(=O)ccc3n2,OC=1C=CC=2N=C3C=CC(=O)C=C3OC2C1,-1.02785
HSTMLKQZZRBSOQ-UHFFFAOYSA-N,,COCCOCCOc1ccc(-c2cc(C(N)=O)c(NC(N)=O)s2)cc1,COCCOCCOc1ccc(cc1)c2cc(c(s2)NC(=O)N)C(=O)N,COCCOCCOC=1C=CC(=CC1)C2=CC(=C(S2)NC(=O)N)C(=O)N,-4.6840297
HSUGRBWQSSZJOP-UHFFFAOYSA-N,Diltiazem,COc1ccc([C@@H]2Sc3ccccc3N(CCN(C)C)C(=O)[C@@H]2OC(C)=O)cc1,CC(=O)O[C@@H]1[C@@H](Sc2ccccc2N(C1=O)CCN(C)C)c3ccc(cc3)OC,S1C(C(C(=O)N(C=2C1=CC=CC2)CCN(C)C)OC(=O)C)C3=CC=C(C=C3)OC,-2.95
HSUIVCLOAAJSRE-UHFFFAOYSA-N,BIS(METHOXYETHYL)PHTHALATE,COCCOC(=O)c1ccccc1C(=O)OCCOC,COCCOC(=O)c1ccccc1C(=O)OCCOC,COCCOC(=O)C=1C=CC=CC1C(=O)OCCOC,-1.52115
HTAUUADKDLLMRU-UHFFFAOYSA-N,"1-[[4-(1,3-benzothiazol-2-yl)phenyl]methyl-ethoxyphosphoryl]pyrrolidin-2-one",CCO[P+]([O-])(Cc1ccc(-c2nc3ccccc3s2)cc1)N1CCCC1=O,CCO[P+](Cc1ccc(cc1)c2nc3ccccc3s2)(N4CCCC4=O)[O-],N1(C(=O)CCC1)[P+](CC2=CC=C(C=C2)C3=NC4=C(S3)C=CC=C4)(OCC)[O-],-3.7289999999999996
HTCRKQHJUYBQTK-UHFFFAOYSA-N,2-ethylhexyl (2-methylbutan-2-yl)oxy carbonate,CCCCC(CC)COC(=O)OOC(C)(C)CC,CCCCC(CC)COC(=O)OOC(C)(C)CC,CCCCC(CC)COC(=O)OOC(C)(C)CC,-6.0881193410000005
HTCSFFGLRQDZDE-UHFFFAOYSA-N,"Benzeneacetic acid, .alpha.-amino-.alpha.-methyl",CC(N)(C(=O)O)c1ccccc1,CC(c1ccccc1)(C(=O)O)N,C(C(=O)O)(C1=CC=CC=C1)(N)C,-0.5367
HTDBYFRUMAMYPX-UHFFFAOYSA-N,,CN(Cc1ccc(-c2nnn(Cc3ccccc3C(=O)O)n2)cc1)c1ccc(-c2ccccc2)cn1,CN(Cc1ccc(cc1)c2nnn(n2)Cc3ccccc3C(=O)O)c4ccc(cn4)c5ccccc5,CN(CC=1C=CC(=CC1)C=2N=NN(N2)CC=3C=CC=CC3C(=O)O)C=4C=CC(=CN4)C=5C=CC=CC5,-4.656681900000001
HTFFQNJXXVAJCF-UHFFFAOYSA-N,,COc1cc2c(Oc3ccc4[nH]ccc4c3)ncnc2cc1OCC(O)CN(C(C)C)C(C)C,CC(C)N(CC(COc1cc2c(cc1OC)c(ncn2)Oc3ccc4c(c3)cc[nH]4)O)C(C)C,COC=1C=C2C(=NC=NC2=CC1OCC(O)CN(C(C)C)C(C)C)OC=3C=CC=4NC=CC4C3,-3.19382
HTGGAYLWTDOFDK-UHFFFAOYSA-N,2-ISOPROPYLPHENYL  2'-NITRO-4'-[(4''-ACETYLPIPERAZIN-1''-YL)ACRYLOYL]PHENYL  SULFIDE,CC(=O)N1CCN(C(=O)/C=C/c2ccc(Sc3ccccc3C(C)C)c([N+](=O)[O-])c2)CC1,CC(C)c1ccccc1Sc2ccc(cc2[N+](=O)[O-])/C=C/C(=O)N3CCN(CC3)C(=O)C,CC(C)C1=C(C=CC=C1)SC2=C(C=C(C=C2)/C=C/C(=O)N3CCN(CC3)C(=O)C)[N+](=O)[O-],-2.7
HTJVRQRCYMQTRY-UHFFFAOYSA-N,,CN(C(=O)C/C=C/c1ccccc1)C1CCN(CCC(c2ccccc2)c2ccccc2)CC1,CN(C1CCN(CC1)CCC(c2ccccc2)c3ccccc3)C(=O)C/C=C/c4ccccc4,CN(C1CCN(CC1)CCC(C=2C=CC=CC2)C=3C=CC=CC3)C(=O)C/C=C/C=4C=CC=CC4,-4.721246400000001
HTLJJHYQRUBBSY-UHFFFAOYSA-N,1-LAURYL-4-METHOXYCARBONYL-2-PYRROLIDONE,CCCCCCCCCCCCN1CC(C(=O)OC)CC1=O,CCCCCCCCCCCCN1CC(CC1=O)C(=O)OC,C1(CN(C(=O)C1)CCCCCCCCCCCC)C(=O)OC,-4.376
HTLNSGOSTFZKFC-UHFFFAOYSA-N,,COCCOc1ccc(F)cc1-c1cc(C(N)=O)c(NC(N)=O)s1,COCCOc1ccc(cc1c2cc(c(s2)NC(=O)N)C(=O)N)F,COCCOC=1C=CC(=CC1C2=CC(=C(S2)NC(=O)N)C(=O)N)F,-4.3957739
HTLSLSVQFDGOEB-UHFFFAOYSA-N,,CN1CCC(Oc2cccc3ncnc(Nc4cccc(F)c4F)c23)CC1,CN1CCC(CC1)Oc2cccc3c2c(ncn3)Nc4cccc(c4F)F,CN1CCC(CC1)OC=2C=CC=C3C2C(=NC=N3)NC=4C=CC=C(C4F)F,-3.1135092999999996
HTMHLBGJBTZBCX-UHFFFAOYSA-N,,CN(C(=O)Cc1ccccc1)C1CCN(CCC(c2ccccc2)c2ccccc2)CC1,CN(C1CCN(CC1)CCC(c2ccccc2)c3ccccc3)C(=O)Cc4ccccc4,CN(C1CCN(CC1)CCC(C=2C=CC=CC2)C=3C=CC=CC3)C(=O)CC=4C=CC=CC4,-3.7695510999999997
HTMQZWFSTJVJEQ-UHFFFAOYSA-N,(phenylmethanesulfinylmethyl)benzene,[O-][S+](Cc1ccccc1)Cc1ccccc1,c1ccc(cc1)CS(=O)Cc2ccccc2,O=S(CC=1C=CC=CC1)CC=2C=CC=CC2,-2.8589043610000004
HTPQIOCMOSKEDE-UHFFFAOYSA-N,,COc1cccc(OC)c1CN1CCC(N(CCc2ccccc2)C(=O)Nc2ccc(F)cc2F)CC1,COc1cccc(c1CN2CCC(CC2)N(CCc3ccccc3)C(=O)Nc4ccc(cc4F)F)OC,COC=1C=CC=C(C1CN2CCC(CC2)N(CCC=3C=CC=CC3)C(=O)NC=4C=CC(=CC4F)F)OC,-3.6382722000000003
HTQMVQVXFRQIKW-UHFFFAOYSA-N,candesartan,CCOc1nc2cccc(C(=O)O)c2n1Cc1ccc(-c2ccccc2-c2nn[nH]n2)cc1,CCOc1nc2cccc(c2n1Cc3ccc(cc3)c4ccccc4c5n[nH]nn5)C(=O)O,CCOC1=NC=2C=CC=C(C2N1CC=3C=CC(=CC3)C=4C=CC=CC4C5=NNN=N5)C(=O)O,-6.497781397000001
HTQNYBBTZSBWKL-UHFFFAOYSA-N,"4-benzoylbenzene-1,2,3-triol",O=C(c1ccccc1)c1ccc(O)c(O)c1O,c1ccc(cc1)C(=O)c2ccc(c(c2O)O)O,OC=1C=CC(=C(C1O)O)C(=O)C=2C=CC=CC2,-3.345053912
HTQVWBZQPVLATM-UHFFFAOYSA-N,,O=C(Nc1ccccc1O)c1cc([N+](=O)[O-])ccc1Cl,c1ccc(c(c1)NC(=O)c2cc(ccc2Cl)[N+](=O)[O-])O,OC=1C=CC=CC1NC(=O)C=2C=C(C=CC2Cl)[N+](=O)[O-],-4.2652002
HTTHUZJPMIHIOQ-UHFFFAOYSA-N,Prasterone formate,CC12CCC3C(CC=C4CC(OC=O)CCC43C)C1CCC2=O,CC12CCC3C(C1CCC2=O)CC=C4C3(CCC(C4)OC=O)C,CC12CCC3C(C1CCC2=O)CC=C4C3(CCC(C4)OC=O)C,-4.41
HTTLBYITFHMYFK-UHFFFAOYSA-N,"bentranil;  2-phenyl-3,1-benzoxazin-4-one;  2-phenylbenzo[d][1,3]oxazin-4-one",O=c1oc(-c2ccccc2)nc2ccccc12,c1ccc(cc1)c2nc3ccccc3c(=O)o2,O=C1OC(=NC2=C1C=CC=C2)C=3C=CC=CC3,-4.61
HTVYOKZZYYYAHK-UHFFFAOYSA-N,,COc1cc2c(Nc3cnc(CNc4cccc(F)c4)nc3)ncnc2cc1OCCCN1CCCCC1CCO,COc1cc2c(cc1OCCCN3CCCCC3CCO)ncnc2Nc4cnc(nc4)CNc5cccc(c5)F,COC=1C=C2C(=NC=NC2=CC1OCCCN3CCCCC3CCO)NC=4C=NC(=NC4)CNC=5C=CC=C(C5)F,-3.4202163999999997
HTXMGVTWXZBZNC-UHFFFAOYSA-N,"sodium 3,5-bis(methoxycarbonyl)benzene-1-sulfonate",COC(=O)c1cc(C(=O)OC)cc(S(=O)(=O)O)c1,COC(=O)c1cc(cc(c1)S(=O)(=O)O)C(=O)OC,COC(=O)C=1C=C(C=C(C1)S(=O)(=O)O)C(=O)OC,-0.966490996
HTXPRECVNAFGMW-UHFFFAOYSA-N,N-Hydroxy-2-phenyl-2-propylpentanamide,CCCC(CCC)(C(=O)NO)c1ccccc1,CCCC(CCC)(c1ccccc1)C(=O)NO,CCCC(CCC)(C(=O)NO)C1=CC=CC=C1,-2.888
HUAXTJRJQYMCGM-UHFFFAOYSA-N,,CCn1c(C)c(C)c2cc(NC(=O)Cn3cncn3)ccc21,CCn1c(c(c2c1ccc(c2)NC(=O)Cn3cncn3)C)C,CCN1C(=C(C2=C1C=CC(=C2)NC(=O)CN3C=NC=N3)C)C,-3.49485
HUBANNPOLNYSAD-UHFFFAOYSA-N,"3,6-dichloropicolinic acid; clopyralid",O=C(O)c1nc(Cl)ccc1Cl,c1cc(nc(c1Cl)C(=O)O)Cl,OC(=O)C=1N=C(C=CC1Cl)Cl,-2.2815
HUBWFSWSVUCXMZ-UHFFFAOYSA-N,,COc1cc2ncnc(Nc3ccc(F)c(Cl)c3)c2cc1C(=O)NCCN1CCOCC1,COc1cc2c(cc1C(=O)NCCN3CCOCC3)c(ncn2)Nc4ccc(c(c4)Cl)F,COC=1C=C2N=CN=C(C2=CC1C(=O)NCCN3CCOCC3)NC=4C=CC(=C(C4)Cl)F,-5.2218487
HUGAWXCWXHSPBW-UHFFFAOYSA-N,"Cyclohexanepropanoic acid, .alpha.-amino-4-hydro",NC(CC1CCC(O)CC1)C(=O)O,C1CC(CCC1CC(C(=O)O)N)O,C(=O)(C(CC1CCC(CC1)O)N)O,-0.3533
HUIYGGQINIVDNW-UHFFFAOYSA-N,Butyl 2-aminobenzoate,CCCCOC(=O)c1ccccc1N,CCCCOC(=O)c1ccccc1N,CCCCOC(=O)C=1C=CC=CC1N,-3.383010263
HUJBKOJMHYWWKG-UHFFFAOYSA-N,,COc1cc2c(Nc3cnc(C(=O)NCc4cccc(Cl)c4)nc3)ncnc2cc1OCCCN1CCOCC1,COc1cc2c(cc1OCCCN3CCOCC3)ncnc2Nc4cnc(nc4)C(=O)NCc5cccc(c5)Cl,COC=1C=C2C(=NC=NC2=CC1OCCCN3CCOCC3)NC=4C=NC(=NC4)C(=O)NCC=5C=CC=C(C5)Cl,-6.4317983
HUMDJCCWHBFSOG-UHFFFAOYSA-N,,COc1cc2ncc(C#N)c(Nc3ccc(Oc4ccccc4OCC(=O)N(C)C4CCN(C)C4)cc3)c2cc1OC,CN1CCC(C1)N(C)C(=O)COc2ccccc2Oc3ccc(cc3)Nc4c5cc(c(cc5ncc4C#N)OC)OC,COC=1C=C2N=CC(=C(C2=CC1OC)NC=3C=CC(=CC3)OC=4C=CC=CC4OCC(=O)N(C)C5CCN(C5)C)C#N,-3.3187587999999995
HUNDISMVCBSIKO-UHFFFAOYSA-N,FENETHCARB,CCc1cc(CC)cc(OC(=O)NC)c1,CCc1cc(cc(c1)OC(=O)NC)CC,CCC1=CC(=CC(=C1)OC(=O)NC)CC,-3.32
HUNGHFUNVZTRKO-UHFFFAOYSA-N,"1-Naphthalenecarboxylic acid, 2-chloro-",O=C(O)c1c(Cl)ccc2ccccc12,c1ccc2c(c1)ccc(c2C(=O)O)Cl,OC(=O)C=1C(=CC=C2C1C=CC=C2)Cl,-2.3151
HUNIGMFZBNJWPV-UHFFFAOYSA-N,,CCCCN1CCC(Oc2cccc(C(=O)Nc3cc(NC(=O)c4cc(F)cc(N5CCOCC5)c4)ccc3C)c2)CC1,CCCCN1CCC(CC1)Oc2cccc(c2)C(=O)Nc3cc(ccc3C)NC(=O)c4cc(cc(c4)F)N5CCOCC5,CCCCN1CCC(CC1)OC=2C=CC=C(C2)C(=O)NC=3C=C(C=CC3C)NC(=O)C=4C=C(C=C(C4)N5CCOCC5)F,-4.8052229
HUNXMJYCHXQEGX-UHFFFAOYSA-N,zaleplon,CCN(C(C)=O)c1cccc(-c2ccnc3c(C#N)cnn23)c1,CCN(c1cccc(c1)c2ccnc3n2ncc3C#N)C(=O)C,CCN(C1=CC=CC(=C1)C2=CC=NC=3N2N=CC3C#N)C(=O)C,-3.8827094860000004
HUOHOGDVFDYSTQ-UHFFFAOYSA-N,"Benzamide, 2,4-dichloro-N-hydroxy-N-phenyl-",O=C(c1ccc(Cl)cc1Cl)N(O)c1ccccc1,c1ccc(cc1)N(C(=O)c2ccc(cc2Cl)Cl)O,ON(C=1C=CC=CC1)C(=O)C=2C=CC(=CC2Cl)Cl,-3.6719999999999997
HUOHYKIRGZFNHH-UHFFFAOYSA-N,,CCN(CC)CCNC(=O)c1ccc(Nc2ncc(Br)c(Nc3ccccc3)n2)cc1,CCN(CC)CCNC(=O)c1ccc(cc1)Nc2ncc(c(n2)Nc3ccccc3)Br,CCN(CC)CCNC(=O)C=1C=CC(=CC1)NC=2N=CC(=C(N2)NC=3C=CC=CC3)Br,-4.3372421999999995
HUPFGZXOMWLGNK-UHFFFAOYSA-N,"diflunisal;  1-carboxy-2-hydroxy-2',4'-difluorobiphenyl",O=C(O)c1cc(-c2ccc(F)cc2F)ccc1O,c1cc(c(cc1c2ccc(cc2F)F)C(=O)O)O,OC(=O)C1=CC(=CC=C1O)C2=C(C=C(C=C2)F)F,-4.48
HUQWRZZGSAGQAU-UHFFFAOYSA-N,,CCn1c2c(c3ccccc31)CC(NC(=O)C(C)(C)C)CC2,CCn1c2ccccc2c3c1CCC(C3)NC(=O)C(C)(C)C,CCN1C2=C(C3=C1C=CC=C3)CC(CC2)NC(=O)C(C)(C)C,-3.9586072999999997
HUSWLYKMRKMTFA-UHFFFAOYSA-N,,CC(C)Cn1c(=O)n(C)c(=O)c2c(C(=O)NCCO)c(Cc3cccc4ccccc34)sc21,CC(C)Cn1c2c(c(c(s2)Cc3cccc4c3cccc4)C(=O)NCCO)c(=O)n(c1=O)C,C(CNC(=O)C1=C(SC2=C1C(=O)N(C(=O)N2CC(C)C)C)CC=3C=CC=C4C3C=CC=C4)O,-6.4200136
HUTDUHSNJYTCAR-UHFFFAOYSA-N,ancymidol; alpha-cyclopropyl-alpha-(4-methoxyphenyl)-5-pyrimidinemethanol,COc1ccc(C(O)(c2cncnc2)C2CC2)cc1,COc1ccc(cc1)C(c2cncnc2)(C3CC3)O,O(C)C=1C=CC(=CC1)C(O)(C=2C=NC=NC2)C3CC3,-2.6
HUTOJUZSGHPHPZ-UHFFFAOYSA-N,,NC(=O)Nc1sc(-c2ccccc2)c(Cc2ccccc2)c1C(N)=O,c1ccc(cc1)Cc2c(c(sc2c3ccccc3)NC(=O)N)C(=O)N,NC(=O)NC=1SC(=C(C1C(=O)N)CC=2C=CC=CC2)C=3C=CC=CC3,-6.1674910999999994
HUWXDEQWWKGHRV-UHFFFAOYSA-N,4-(4-amino-3-chlorophenyl)-2-chloroaniline dihydrochloride,Nc1ccc(-c2ccc(N)c(Cl)c2)cc1Cl,c1cc(c(cc1c2ccc(c(c2)Cl)N)Cl)N,NC=1C=CC(=CC1Cl)C=2C=CC(=C(C2)Cl)N,-4.912
HUYGUEOQXHFIBI-UHFFFAOYSA-N,,COc1cc2c(Nc3ncc(CC(=O)Nc4ccc(F)c(Cl)c4)s3)ncnc2cc1OCC(O)CN1CCNCC1,COc1cc2c(cc1OCC(CN3CCNCC3)O)ncnc2Nc4ncc(s4)CC(=O)Nc5ccc(c(c5)Cl)F,COC=1C=C2C(=NC=NC2=CC1OCC(O)CN3CCNCC3)NC4=NC=C(S4)CC(=O)NC=5C=CC(=C(C5)Cl)F,-5.6197888
HUYRRYFRGJEAMW-UHFFFAOYSA-N,,Cc1ccccc1NC(=O)Nc1ccc(N2CC(COc3cccc(CC(=O)O)c3)OC2=O)cc1,Cc1ccccc1NC(=O)Nc2ccc(cc2)N3CC(OC3=O)COc4cccc(c4)CC(=O)O,CC=1C=CC=CC1NC(=O)NC=2C=CC(=CC2)N3CC(OC3=O)COC=4C=CC=C(C4)CC(=O)O,-3.6777807
HUYYFHGIHVULSU-UHFFFAOYSA-N,"benzene-1,3-disulfonamide",NS(=O)(=O)c1cccc(S(N)(=O)=O)c1,c1cc(cc(c1)S(=O)(=O)N)S(=O)(=O)N,S(=O)(=O)(C1=CC(=CC=C1)S(=O)(=O)N)N,-2.1693
HVBDWKMAUMVFIY-UHFFFAOYSA-N,3-hydroxy-4-[(2-methyl-5-nitrophenyl)diazenyl]-N-phenyl-2-naphthamide,Cc1ccc([N+](=O)[O-])cc1N/N=C1\C(=O)C(C(=O)Nc2ccccc2)=Cc2ccccc21,Cc1ccc(cc1N/N=C\2/c3ccccc3C=C(C2=O)C(=O)Nc4ccccc4)[N+](=O)[O-],CC=1C=CC(=CC1N/N=C/2\C(=O)C(=CC3=C2C=CC=C3)C(=O)NC=4C=CC=CC4)[N+](=O)[O-],-7.55798389
HVBQHDJUCUAZAA-UHFFFAOYSA-N,,COc1ccc(NC(=O)Cc2cc(F)c3nc(Nc4cccc(F)c4)oc3c2)cc1OCC(C)CC(=O)O,CC(CC(=O)O)COc1cc(ccc1OC)NC(=O)Cc2cc3c(c(c2)F)nc(o3)Nc4cccc(c4)F,COC=1C=CC(=CC1OCC(C)CC(=O)O)NC(=O)CC=2C=C(C=3N=C(OC3C2)NC=4C=CC=C(C4)F)F,-2.7447275
HVBSAKJJOYLTQU-UHFFFAOYSA-N,sulfanilic acid,Nc1ccc(S(=O)(=O)O)cc1,c1cc(ccc1N)S(=O)(=O)O,S(=O)(=O)(C1=CC=C(C=C1)N)O,-1.130636513
HVCNNTAUBZIYCG-UHFFFAOYSA-N,"Propanoic acid, 2-(4-((6-chloro-2-benzothiazolyl",CCOC(=O)C(C)Oc1ccc(Oc2nc3ccc(Cl)cc3s2)cc1,CCOC(=O)C(C)Oc1ccc(cc1)Oc2nc3ccc(cc3s2)Cl,CCOC(=O)C(C)OC1=CC=C(C=C1)OC2=NC3=C(S2)C=C(C=C3)Cl,-5.672000000000001
HVGZQCSMLUDISR-UHFFFAOYSA-N,2-Phenylethyl propanoate,CCC(=O)OCCc1ccccc1,CCC(=O)OCCc1ccccc1,CCC(=O)OCCC=1C=CC=CC1,-3.117222168
HVHNMNGARPCGGD-UHFFFAOYSA-N,"2-Nitro-1,4-phenylenediamine",Nc1ccc(N)c([N+](=O)[O-])c1,c1cc(c(cc1N)[N+](=O)[O-])N,O=[N+]([O-])C1=C(C=CC(=C1)N)N,-0.772
HVKCEFHNSNZIHO-UHFFFAOYSA-N,Desmethyldoxepin,CNCC/C=C1\c2ccccc2COc2ccccc21,CNCC/C=C/1\c2ccccc2COc3c1cccc3,CNCC/C=C/1\C2=C(C=CC=C2)COC3=C1C=CC=C3,-3.403
HVLYJUCOMBTMTA-UHFFFAOYSA-N,"Hydrocinnamic acid, .beta.-methoxy-",COC(CC(=O)O)c1ccccc1,COC(CC(=O)O)c1ccccc1,COC(CC(=O)O)C=1C=CC=CC1,-1.6951
HVMGUPMFFCLQNI-UHFFFAOYSA-N,"ENTACAPONE ANALOG (2a);  (E)-2-Cyano-N,N-diethyl-3-[3-N-ethylcarbamoyloxy-4-hydroxy-5-nitrophenyl]propenamide",CCNC(=O)Oc1cc(/C=C(\C#N)C(=O)N(CC)CC)cc([N+](=O)[O-])c1O,CCNC(=O)Oc1cc(cc(c1O)[N+](=O)[O-])/C=C(\C#N)/C(=O)N(CC)CC,CCNC(=O)OC1=C(C(=CC(=C1)/C=C(\C#N)/C(=O)N(CC)CC)[N+](=O)[O-])O,-3.18
HVMUWHZAZGTMJK-UHFFFAOYSA-N,"7H-Purine, 2,6-dichloro-7-methyl-",Cn1cnc2nc(Cl)nc(Cl)c21,Cn1cnc2c1c(nc(n2)Cl)Cl,CN1C=NC2=C1C(=NC(=N2)Cl)Cl,-1.1521
HVQJKZBMPOMVKY-UHFFFAOYSA-N,,Cc1ccccc1NC(=O)Nc1ccc(N(C)C(=O)OCc2cccc(OCCCC(=O)O)c2)cc1,Cc1ccccc1NC(=O)Nc2ccc(cc2)N(C)C(=O)OCc3cccc(c3)OCCCC(=O)O,CN(C(=O)OCC=1C=CC=C(C1)OCCCC(=O)O)C=2C=CC(=CC2)NC(=O)NC=3C=CC=CC3C,-2.853872
HVRPQVNLNIHIRC-UHFFFAOYSA-N,"N1,N1,N4-TRIMETHYL-N4-(BUTANOYL)SULFANILAMIDE",CCCC(=O)N(C)c1ccc(S(=O)(=O)N(C)C)cc1,CCCC(=O)N(C)c1ccc(cc1)S(=O)(=O)N(C)C,CCCC(=O)N(C)C1=CC=C(C=C1)S(=O)(=O)N(C)C,-2.16
HVULPNFUFIUSNZ-UHFFFAOYSA-N,,Cc1ccc(Nc2ccc3c(c2)c2c(n3S(C)(=O)=O)CCCC2)nn1,Cc1ccc(nn1)Nc2ccc3c(c2)c4c(n3S(=O)(=O)C)CCCC4,CC=1C=CC(=NN1)NC=2C=CC=3N(C4=C(C3C2)CCCC4)S(=O)(=O)C,-5.853872
HVVINGXJHBOTJQ-UHFFFAOYSA-N,3-Methylcholanthrene,Cc1ccc2c(ccc3c4c5c(cccc5cc32)CC4)c1,Cc1ccc2c(c1)ccc3c2cc4cccc5c4c3CC5,C=1C=C(C=C2C1C=3C=C4C=CC=C5C4=C(C3C=C2)CC5)C,-7.92
HVWGPFLNMVYTAL-UHFFFAOYSA-N,,COc1cc(Cn2c3ccccc3c(=O)c3ccc(OCCCN(C)C)cc32)cc(OC)c1O,CN(C)CCCOc1ccc2c(c1)n(c3ccccc3c2=O)Cc4cc(c(c(c4)OC)O)OC,COC=1C=C(C=C(C1O)OC)CN2C=3C=CC=CC3C(=O)C4=C2C=C(C=C4)OCCCN(C)C,-4.5257837
HVWHPUOEZHMRSQ-UHFFFAOYSA-N,,COc1cc2c(Nc3ccc(F)c(Cl)c3)ncnc2cc1NCCCN1CCCC1,COc1cc2c(cc1NCCCN3CCCC3)ncnc2Nc4ccc(c(c4)Cl)F,COC=1C=C2C(=NC=NC2=CC1NCCCN3CCCC3)NC=4C=CC(=C(C4)Cl)F,-3.853872
HVXXOIGTXJOVON-UHFFFAOYSA-N,Opianic_Acid,COc1ccc(C=O)c(C(=O)O)c1OC,COc1ccc(c(c1OC)C(=O)O)C=O,OC(=O)C=1C(=CC=C(C1OC)OC)C=O,-1.92235
HVYDRBTXGUFRBX-UHFFFAOYSA-N,N-(4-Chlorophenyl)-n-hydroxynaphthalene-2-carboxamide,O=C(c1ccc2ccccc2c1)N(O)c1ccc(Cl)cc1,c1ccc2cc(ccc2c1)C(=O)N(c3ccc(cc3)Cl)O,O=C(C1=CC2=C(C=CC=C2)C=C1)N(O)C3=CC=C(C=C3)Cl,-5.472
HVYWMOMLDIMFJA-UHFFFAOYSA-N,Cholesterol,CC(C)CCC[C@@H](C)[C@H]1CC[C@H]2[C@@H]3CC=C4C[C@@H](O)CC[C@]4(C)[C@H]3CC[C@@]21C,CC(C)CCC[C@@H](C)[C@H]1CC[C@@H]2[C@@]1(CC[C@H]3[C@H]2CC=C4[C@@]3(CC[C@@H](C4)O)C)C,OC1CCC2(C(=CCC3C2CCC4(C3CCC4C(CCCC(C)C)C)C)C1)C,-7.0
HWAFCRWGGRVEQL-UHFFFAOYSA-N,5-hydroxybenzoic acid,CC(=O)NC1CCC(O)CC1,CC(=O)NC1CCC(CC1)O,O=C(NC1CCC(CC1)O)C,-1.464
HWATZEJQIXKWQS-UHFFFAOYSA-N,Flazasulfuron,COc1cc(OC)nc(NC(=O)NS(=O)(=O)c2ncccc2C(F)(F)F)n1,COc1cc(nc(n1)NC(=O)NS(=O)(=O)c2c(cccn2)C(F)(F)F)OC,O=C(NC1=NC(=CC(=N1)OC)OC)NS(=O)(=O)C2=NC=CC=C2C(F)(F)F,-2.2880000000000003
HWCUCNKPBMGSSC-UHFFFAOYSA-N,1-Phenylvinyl acetate,C=C(OC(C)=O)c1ccccc1,CC(=O)OC(=C)c1ccccc1,CC(=O)OC(=C)C=1C=CC=CC1,-2.113797694
HWEPYKFQPZZOIB-UHFFFAOYSA-N,,COc1cc2c(NC(=O)NC(C)c3ccccc3)ncnc2cc1OCCCN1CCOCC1,CC(c1ccccc1)NC(=O)Nc2c3cc(c(cc3ncn2)OCCCN4CCOCC4)OC,COC=1C=C2C(=NC=NC2=CC1OCCCN3CCOCC3)NC(=O)NC(C)C=4C=CC=CC4,-4.537602
HWFKZSGVXJUPRP-UHFFFAOYSA-N,,COc1cc2c(Nc3nc(C(=O)Nc4ccncc4)cs3)ncnc2cc1OCCCN1CCOCC1,COc1cc2c(cc1OCCCN3CCOCC3)ncnc2Nc4nc(cs4)C(=O)Nc5ccncc5,COC=1C=C2C(=NC=NC2=CC1OCCCN3CCOCC3)NC4=NC(=CS4)C(=O)NC=5C=CN=CC5,-2.9871627999999997
HWFSVCPXNLEACG-UHFFFAOYSA-N,"3-(2-chloroethyl)quinazoline-2,4(1H,3H)-dione",O=c1[nH]c2ccccc2c(=O)n1CCCl,c1ccc2c(c1)c(=O)n(c(=O)[nH]2)CCCl,ClCCN1C(=O)NC=2C=CC=CC2C1=O,-3.57489972
HWHJZJYMIGEOIP-UHFFFAOYSA-N,,COc1cc2c(Nc3ccc(NC(=O)c4ccccc4)cc3)ncnc2cc1OCC(F)(F)F,COc1cc2c(cc1OCC(F)(F)F)ncnc2Nc3ccc(cc3)NC(=O)c4ccccc4,COC=1C=C2C(=NC=NC2=CC1OCC(F)(F)F)NC=3C=CC(=CC3)NC(=O)C=4C=CC=CC4,-6.0
HWHLATNIMIHAGJ-UHFFFAOYSA-N,,COc1cc2ncnc(Nc3ccc(F)c(Cl)c3)c2cc1OCC(O)CN1CCCC1,COc1cc2c(cc1OCC(CN3CCCC3)O)c(ncn2)Nc4ccc(c(c4)Cl)F,COC=1C=C2N=CN=C(C2=CC1OCC(O)CN3CCCC3)NC=4C=CC(=C(C4)Cl)F,-3.8860566
HWHLPVGTWGOCJO-UHFFFAOYSA-N,Trihexyphenidyl,OC(CCN1CCCCC1)(c1ccccc1)C1CCCCC1,c1ccc(cc1)C(CCN2CCCCC2)(C3CCCCC3)O,OC(CCN1CCCCC1)(C=2C=CC=CC2)C3CCCCC3,-1.815
HWIGZMADSFQMOI-UHFFFAOYSA-N,"2,4-D, METHYL ESTER",COC(=O)COc1ccc(Cl)cc1Cl,COC(=O)COc1ccc(cc1Cl)Cl,COC(=O)COC=1C=CC(=CC1Cl)Cl,-2.9598
HWKJUTNGMWWQEB-UHFFFAOYSA-N,,COc1cc2ncnc(Nc3ccc(F)c(Cl)c3)c2cc1OC1CN(C(C)C)C1,CC(C)N1CC(C1)Oc2cc3c(cc2OC)ncnc3Nc4ccc(c(c4)Cl)F,COC=1C=C2N=CN=C(C2=CC1OC3CN(C3)C(C)C)NC=4C=CC(=C(C4)Cl)F,-6.3214816
HWLINJPYLXLANY-UHFFFAOYSA-N,"Ethanol, 2,2'-thiobis-, diacetate",CC(=O)OCCSCCOC(C)=O,CC(=O)OCCSCCOC(=O)C,C(=O)(OCCSCCOC(=O)C)C,-0.9808
HWOGLWGFRRJDEC-UHFFFAOYSA-N,5-decoxy-2-[(~{E})-~{C}-ethyl-~{N}-hydroxycarbonimidoyl]phenol,CCCCCCCCCCOc1ccc(/C(CC)=N/O)c(O)c1,CCCCCCCCCCOc1ccc(c(c1)O)/C(=N/O)/CC,CCCCCCCCCCOC1=CC(=C(C=C1)/C(=N/O)/CC)O,-4.06
HWPOZMMTECRYLB-UHFFFAOYSA-N,"4-ethoxy-2-oxido-3-phenylsulfonyl-1,2,5-oxadiazol-2-ium",CCOc1no[n+]([O-])c1S(=O)(=O)c1ccccc1,CCOc1c([n+](on1)[O-])S(=O)(=O)c2ccccc2,S(=O)(=O)(C1=[N+](ON=C1OCC)[O-])C2=CC=CC=C2,-4.242
HWQBUJSWKVPMFY-UHFFFAOYSA-N,"2-Butenedioic acid, 2-methyl-, 1-ethyl ester, (E",CCOC(=O)/C(C)=C/C(=O)O,CCOC(=O)/C(=C/C(=O)O)/C,OC(=O)/C=C(/C(=O)OCC)\C,-1.026
HWQIXTGOFMPUFJ-UHFFFAOYSA-N,,CN(Cc1ccc(-c2ccn(Cc3ccccc3C(=O)O)n2)cc1Br)c1ccccn1,CN(Cc1ccc(cc1Br)c2ccn(n2)Cc3ccccc3C(=O)O)c4ccccn4,CN(CC=1C=CC(=CC1Br)C=2C=CN(N2)CC=3C=CC=CC3C(=O)O)C=4C=CC=CN4,-4.6197888
HWSCCCRUBNTUDY-UHFFFAOYSA-N,,CC(C)(CO)NC(=O)c1ccc(S(=O)(=O)c2ccc(NC(=O)C(C)(O)C(F)(F)F)c(Cl)c2)cc1,CC(C)(CO)NC(=O)c1ccc(cc1)S(=O)(=O)c2ccc(c(c2)Cl)NC(=O)C(C)(C(F)(F)F)O,CC(C)(CO)NC(=O)C=1C=CC(=CC1)S(=O)(=O)C=2C=CC(=C(C2)Cl)NC(=O)C(C)(O)C(F)(F)F,-4.7447275
HWSSEYVMGDIFMH-UHFFFAOYSA-N,TRIETHYLENEGLYCOL DIMETHACRYLATE,C=C(C)C(=O)OCCOCCOCCOC(=O)C(=C)C,CC(=C)C(=O)OCCOCCOCCOC(=O)C(=C)C,CC(=C)C(=O)OCCOCCOCCOC(=O)C(=C)C,-1.9008
HWUZGIRAMNLSCI-UHFFFAOYSA-N,,CC(COc1cc(NC(=O)Cc2ccc3nc(Nc4ccccc4)oc3c2)ccc1OCCN1CCCC1)CC(=O)O,CC(CC(=O)O)COc1cc(ccc1OCCN2CCCC2)NC(=O)Cc3ccc4c(c3)oc(n4)Nc5ccccc5,CC(COC=1C=C(C=CC1OCCN2CCCC2)NC(=O)CC=3C=CC=4N=C(OC4C3)NC=5C=CC=CC5)CC(=O)O,-3.9586072999999997
HWYMVIVIHYHBMA-UHFFFAOYSA-N,"Hydracrylic acid, propyl ester, acetate",CCCOC(=O)C(C)OC(C)=O,CCCOC(=O)C(C)OC(=O)C,C(=O)(C(OC(=O)C)C)OCCC,-0.6401
HWYVKCUPNWXZEO-UHFFFAOYSA-N,,COC1(c2cccc(OCc3ccc4ccccc4c3)c2)CCOCC1,COC1(CCOCC1)c2cccc(c2)OCc3ccc4ccccc4c3,COC1(CCOCC1)C=2C=CC=C(C2)OCC=3C=CC=4C=CC=CC4C3,-7.0655015
HWZXYIOPSXGVIE-UHFFFAOYSA-N,,CC(=O)Nc1ccc2nc(C)cc(Nc3ccc4nc(C)cc(N)c4c3)c2c1,Cc1cc(c2cc(ccc2n1)Nc3cc(nc4c3cc(cc4)NC(=O)C)C)N,CC(=O)NC=1C=CC=2N=C(C=C(C2C1)NC=3C=CC=4N=C(C=C(C4C3)N)C)C,-5.236572
HXAOUYGZEOZTJO-UHFFFAOYSA-N,4-chloro-1-(4-fluorophenyl)butan-1-one,O=C(CCCCl)c1ccc(F)cc1,c1cc(ccc1C(=O)CCCCl)F,FC=1C=CC(=CC1)C(=O)CCCCl,-2.722816962