inchikey,Name,SMILES_stand,SMILES,kekSmiles,logS
APCCGKKKWDIUEP-UHFFFAOYSA-N,,Cc1ccc(NC(=O)c2cccc3c2Cc2ccccc2-3)cc1NC(=O)c1cccc(CN2CCN(C)CC2)c1,Cc1ccc(cc1NC(=O)c2cccc(c2)CN3CCN(CC3)C)NC(=O)c4cccc-5c4Cc6c5cccc6,CN1CCN(CC1)CC=2C=CC=C(C2)C(=O)NC=3C=C(C=CC3C)NC(=O)C=4C=CC=C5C4CC=6C5=CC=CC6,-5.8860566
APCDMDJMHYSEPA-UHFFFAOYSA-N,1-(ISOBUTOXYCARBONYL)THIABENDAZOLE; 1-ISOBUTOXYCARBONYL-2-(THIAZOL-4-YL)BENZIMIDAZOLE,CC(C)COC(=O)n1c(-c2cscn2)nc2ccccc21,CC(C)COC(=O)n1c2ccccc2nc1c3cscn3,CC(C)COC(=O)N1C2=C(C=CC=C2)N=C1C3=CSC=N3,-4.17
APEHOMJIUYDKHS-UHFFFAOYSA-N,,Cc1ccc(-c2cc(C(N)=O)c(NC(N)=O)s2)o1,Cc1ccc(o1)c2cc(c(s2)NC(=O)N)C(=O)N,CC1=CC=C(O1)C2=CC(=C(S2)NC(=O)N)C(=O)N,-5.075720700000001
APHCRPOSKYGXIM-UHFFFAOYSA-N,,COc1cc2ncnc(Nc3cccc(NC(=O)c4ccccc4C)c3)c2cc1OC,Cc1ccccc1C(=O)Nc2cccc(c2)Nc3c4cc(c(cc4ncn3)OC)OC,COC=1C=C2N=CN=C(C2=CC1OC)NC=3C=CC=C(C3)NC(=O)C=4C=CC=CC4C,-4.9393022
APJYDQYYACXCRM-UHFFFAOYSA-N,tryptamine,NCCc1c[nH]c2ccccc12,c1ccc2c(c1)c(c[nH]2)CCN,NCCC1=CNC2=C1C=CC=C2,-3.3
APLQKIOMUZYLKA-UHFFFAOYSA-N,,CC(=O)N1CCc2cc(N(C(=O)c3ccccc3)C3CCN(CCc4ccccc4)CC3)ccc21,CC(=O)N1CCc2c1ccc(c2)N(C3CCN(CC3)CCc4ccccc4)C(=O)c5ccccc5,CC(=O)N1CCC2=C1C=CC(=C2)N(C3CCN(CC3)CCC=4C=CC=CC4)C(=O)C=5C=CC=CC5,-4.366531500000001
APMORJJNVZMVQK-UHFFFAOYSA-N,,CC1CC(Cl)CCC1C(=O)OC(C)(C)C,CC1CC(CCC1C(=O)OC(C)(C)C)Cl,ClC1CC(C(CC1)C(=O)OC(C)(C)C)C,-2.367
APOQXKXBZDMITN-UHFFFAOYSA-N,"Pentanamide, N-(aminocarbonyl)-2-bromo-",CCCC(Br)C(=O)NC(N)=O,CCCC(C(=O)NC(=O)N)Br,N(C(=O)C(Br)CCC)C(=O)N,-1.4279
APQSQLNWAIULLK-UHFFFAOYSA-N,"1,4-Dimethylnaphthalene",Cc1ccc(C)c2ccccc12,Cc1ccc(c2c1cccc2)C,CC=1C=CC(=C2C1C=CC=C2)C,-4.14
APRRQJCCBSJQOQ-UHFFFAOYSA-N,"sodium hydrogen 4-amino-5-hydroxynaphthalene-2,7-disulfonate",Nc1cc(S(=O)(=O)O)cc2cc(S(=O)(=O)O)cc(O)c12,c1c2cc(cc(c2c(cc1S(=O)(=O)O)N)O)S(=O)(=O)O,NC=1C=C(C=C2C1C(=CC(=C2)S(=O)(=O)O)O)S(=O)(=O)O,-1.476114446
APSHQFCMMKRIFB-UHFFFAOYSA-N,,CSc1nc(N)n2nc(-c3ccco3)nc2n1,CSc1nc(n2c(n1)nc(n2)c3ccco3)N,CSC=1N=C(N2N=C(N=C2N1)C3=CC=CO3)N,-3.8239087
APSMUYYLXZULMS-UHFFFAOYSA-N,2-Bromonapthalene,Brc1ccc2ccccc2c1,c1ccc2cc(ccc2c1)Br,C=1C(=CC=C2C1C=CC=C2)Br,-4.4
APTGJECXMIKIET-UHFFFAOYSA-N,"NORETHINDRONE  ENANTHATE, NORETHINDRONE HEPTANOATE; NORETHISTERONE ENANTHATE",C#CC1(OC(=O)CCCCCC)CCC2C3CCC4=CC(=O)CCC4C3CCC21C,CCCCCCC(=O)OC1(CCC2C1(CCC3C2CCC4=CC(=O)CCC34)C)C#C,CCCCCCC(=O)OC1(CCC2C1(CCC3C2CCC4=CC(=O)CCC43)C)C#C,-6.89
APTZNLHMIGJTEW-UHFFFAOYSA-N,Pyraflufen-ethyl,CCOC(=O)COc1cc(-c2nn(C)c(OC(F)F)c2Cl)c(F)cc1Cl,CCOC(=O)COc1cc(c(cc1Cl)F)c2c(c(n(n2)C)OC(F)F)Cl,FC1=CC(=C(C=C1C2=NN(C(=C2Cl)OC(F)F)C)OCC(=O)OCC)Cl,-5.61605
APWPWJAXDOAARR-UHFFFAOYSA-N,,COc1ccc(NC(=O)N(C)CC2OCCCCC(C)Oc3ccc(NC(=O)Nc4c(C)noc4C)cc3C(=O)N(C(C)CO)CC2C)cc1,Cc1c(c(on1)C)NC(=O)Nc2ccc3c(c2)C(=O)N(CC(C(OCCCCC(O3)C)CN(C)C(=O)Nc4ccc(cc4)OC)C)C(C)CO,COC1=CC=C(C=C1)NC(=O)N(C)CC2OCCCCC(OC3=CC=C(C=C3C(=O)N(CC2C)C(C)CO)NC(=O)NC4=C(ON=C4C)C)C,-4.0315
AQCHWTWZEMGIFD-UHFFFAOYSA-N,Molecule287,Cc1ccccc1N1C(=O)c2cc(S(N)(=O)=O)c(Cl)cc2NC1C,Cc1ccccc1N2C(Nc3cc(c(cc3C2=O)S(=O)(=O)N)Cl)C,N1(C(=O)C2=C(C=C(C(=C2)S(=O)(=O)N)Cl)NC1C)C=3C(=CC=CC3)C,-3.78
AQDFSVHEWLLMJX-UHFFFAOYSA-N,,CCc1ccccc1NC(=O)Nc1ccc(NC(=O)OCc2cccc(OCCCC(=O)O)c2)cc1,CCc1ccccc1NC(=O)Nc2ccc(cc2)NC(=O)OCc3cccc(c3)OCCCC(=O)O,CCC=1C=CC=CC1NC(=O)NC=2C=CC(=CC2)NC(=O)OCC=3C=CC=C(C3)OCCCC(=O)O,-5.1739252
AQDIACCTLKEMHM-UHFFFAOYSA-N,,Cc1cc2c(c(C)c1NC(=O)C1CCCN(C(=O)N(C)C)C1)c1ccccc1n2C(C)C,Cc1cc2c(c(c1NC(=O)C3CCCN(C3)C(=O)N(C)C)C)c4ccccc4n2C(C)C,CC(C)N1C=2C=CC=CC2C3=C1C=C(C(=C3C)NC(=O)C4CCCN(C4)C(=O)N(C)C)C,-4.4078232
AQGSZYZZVTYOMQ-UHFFFAOYSA-N,"3-Propyl-2,4-pentadione",CCCC(C(C)=O)C(C)=O,CCCC(C(=O)C)C(=O)C,CC(=O)C(CCC)C(=O)C,-0.88
AQHHHDLHHXJYJD-UHFFFAOYSA-N,propranolol hydrochloride,CC(C)NCC(O)COc1cccc2ccccc12,CC(C)NCC(COc1cccc2c1cccc2)O,OC(CNC(C)C)COC1=C2=C(=CC=C1)C=CC=C2,-3.62
AQHJGSVRTSBTKR-UHFFFAOYSA-N,2-(3-hydroxyphenyl)sulfonylphenol,O=S(=O)(c1cccc(O)c1)c1ccccc1O,c1ccc(c(c1)O)S(=O)(=O)c2cccc(c2)O,O=S(=O)(C1=CC(=CC=C1)O)C2=C(C=CC=C2)O,-2.2875
AQHKSZKHOSKBSQ-UHFFFAOYSA-N,,N#Cc1cccc(C(=O)NCCOc2c(Cl)cccc2Cl)c1,c1cc(cc(c1)C(=O)NCCOc2c(cccc2Cl)Cl)C#N,ClC=1C=CC=C(C1OCCNC(=O)C=2C=CC=C(C2)C#N)Cl,-5.3187587999999995
AQIXAKUUQRKLND-UHFFFAOYSA-N,Cimetidine,C/N=C(/NC#N)NCCSCc1nc[nH]c1C,Cc1c(nc[nH]1)CSCCN/C(=N\C)/NC#N,S(CCN/C(=N/C)/NC#N)CC1=C(NC=N1)C,-1.4299
AQLLDCFUQXGLHM-UHFFFAOYSA-N,,CC(=O)Nc1cccc(F)c1,CC(=O)Nc1cccc(c1)F,CC(=O)NC1=CC=CC(=C1)F,-1.725
AQMBZJFAYLBACQ-UHFFFAOYSA-N,quinidine,C=CC1CN2CCC1C(C(O)c1ccnc3ccc(OC)cc13)C2,COc1ccc2c(c1)c(ccn2)C(C3CN4CCC3C(C4)C=C)O,COC1=CC2=C(C=CN=C2C=C1)C(O)C3CN4CCC3C(C4)C=C,-3.36
AQNDDEOPVVGCPG-UHFFFAOYSA-N,esmolol hydrochloride,COC(=O)CCc1ccc(OCC(O)CNC(C)C)cc1,CC(C)NCC(COc1ccc(cc1)CCC(=O)OC)O,CC(C)NCC(COC1=CC=C(C=C1)CCC(=O)OC)O,-1.219898739
AQOGFYKIAFAMFK-UHFFFAOYSA-N,"Glycolic acid, propyl ester, nitrate",CCCOC(=O)CO[N+](=O)[O-],CCCOC(=O)CO[N+](=O)[O-],[N+](=O)(OCC(=O)OCCC)[O-],-1.9569999999999999
AQOKCDNYWBIDND-UHFFFAOYSA-N,bimatoprost,CCNC(=O)CCC/C=C\C[C@H]1[C@@H](O)C[C@@H](O)[C@@H]1/C=C/[C@@H](O)CCc1ccccc1,CCNC(=O)CCC/C=C\C[C@H]1[C@H](C[C@H]([C@@H]1/C=C/[C@H](CCc2ccccc2)O)O)O,CCNC(=O)CCC/C=C\C[C@H]1[C@H](C[C@H]([C@@H]1/C=C/[C@H](CCC2=CC=CC=C2)O)O)O,-2.7155542010000002
AQQKGZJPWKEZJE-UHFFFAOYSA-N,2-chloro-4-[(4-hydroxyphenyl)diazenyl]benzoic acid,O=C(O)c1ccc(/N=N/c2ccc(O)cc2)cc1Cl,c1cc(ccc1/N=N/c2ccc(c(c2)Cl)C(=O)O)O,O=C(O)C1=C(C=C(C=C1)/N=N/C2=CC=C(C=C2)O)Cl,-2.6189999999999998
AQRQMHZJHCVATH-UHFFFAOYSA-N,,COc1cc2c(N/C(=N\CCC3CCCCN3C(=O)OC(C)(C)C)Nc3c(C)cccc3C)ncnc2cc1OCC1CCN(C)CC1,Cc1cccc(c1N/C(=N/CCC2CCCCN2C(=O)OC(C)(C)C)/Nc3c4cc(c(cc4ncn3)OCC5CCN(CC5)C)OC)C,COC=1C=C2C(=NC=NC2=CC1OCC3CCN(CC3)C)N/C(=N\CCC4CCCCN4C(=O)OC(C)(C)C)/NC=5C(=CC=CC5C)C,-4.2076082999999995
AQXYVFBSOOBBQV-UHFFFAOYSA-N,1-AMINO-4-HYDROXYANTHRAQUINONE,Nc1ccc(O)c2c1C(=O)c1ccccc1C2=O,c1ccc2c(c1)C(=O)c3c(ccc(c3C2=O)O)N,NC=1C=CC(=C2C1C(=O)C3=C(C=CC=C3)C2=O)O,-3.824
AQYCMVICBNBXNA-UHFFFAOYSA-N,2-Methylpentanedioic acid,CC(CCC(=O)O)C(=O)O,CC(CCC(=O)O)C(=O)O,CC(CCC(=O)O)C(=O)O,0.835212477
AQYMRQUYPFCXDM-UHFFFAOYSA-N,3-hydroxy-N-(2-methoxyphenyl)naphthalene-2-carboxamide,COc1ccccc1NC(=O)c1cc2ccccc2cc1O,COc1ccccc1NC(=O)c2cc3ccccc3cc2O,COC=1C=CC=CC1NC(=O)C=2C=C3C=CC=CC3=CC2O,-5.1770000000000005
AQZGPSLYZOOYQP-UHFFFAOYSA-N,DIISOPENTYL ETHER,CC(C)CCOCCC(C)C,CC(C)CCOCCC(C)C,O(CCC(C)C)CCC(C)C,-2.8982
ARAIBEBZBOPLMB-UHFFFAOYSA-N,zanamivir,CC(=O)N[C@@H]1[C@@H](N=C(N)N)C=C(C(=O)O)O[C@H]1[C@H](O)[C@H](O)CO,CC(=O)N[C@@H]1[C@H](C=C(O[C@H]1[C@@H]([C@@H](CO)O)O)C(=O)O)N=C(N)N,CC(=O)N[C@@H]1[C@H](C=C(O[C@H]1[C@@H]([C@@H](CO)O)O)C(=O)O)N=C(N)N,-0.96524091
ARCGXLSVLAOJQL-UHFFFAOYSA-N,TRIMELLITIC ACID,O=C(O)c1ccc(C(=O)O)c(C(=O)O)c1,c1cc(c(cc1C(=O)O)C(=O)O)C(=O)O,OC(=O)C=1C=CC(=C(C1)C(=O)O)C(=O)O,-0.4
ARDYBEPURLDBAR-UHFFFAOYSA-N,,COc1cc2c(NC(=O)NC(C)c3ccccc3)ncnc2cc1OCC1CCN(C)CC1,CC(c1ccccc1)NC(=O)Nc2c3cc(c(cc3ncn2)OCC4CCN(CC4)C)OC,COC=1C=C2C(=NC=NC2=CC1OCC3CCN(CC3)C)NC(=O)NC(C)C=4C=CC=CC4,-3.7447275
ARGDYOIRHYLIMT-UHFFFAOYSA-N,"N,N-dichloro-4-methylbenzenesulfonamide",Cc1ccc(S(=O)(=O)N(Cl)Cl)cc1,Cc1ccc(cc1)S(=O)(=O)N(Cl)Cl,S(=O)(=O)(C1=CC=C(C=C1)C)N(Cl)Cl,-3.509
ARGKVCXINMKCAZ-UHFFFAOYSA-N,"7-{[4,5-dihydroxy-6-(hydroxymethyl)-3-[(3,4,5-trihydroxy-6-methyloxan-2-yl)oxy]oxan-2-yl]oxy}-5-hydroxy-2-(3-hydroxy-4-methoxyphenyl)-3,4-dihydro-2H-1-benzopyran-4-one",COc1ccc([C@@H]2CC(=O)c3c(O)cc(O[C@@H]4O[C@H](CO)[C@@H](O)[C@H](O)[C@H]4O[C@@H]4O[C@@H](C)[C@H](O)[C@@H](O)[C@H]4O)cc3O2)cc1O,C[C@H]1[C@@H]([C@H]([C@H]([C@@H](O1)O[C@@H]2[C@H]([C@@H]([C@H](O[C@H]2Oc3cc(c4c(c3)O[C@@H](CC4=O)c5ccc(c(c5)O)OC)O)CO)O)O)O)O)O,COC=1C=CC(=CC1O)[C@@H]2CC(=O)C=3C(=CC(=CC3O2)O[C@@H]4O[C@@H]([C@H]([C@@H]([C@H]4O[C@@H]5O[C@H]([C@@H]([C@H]([C@H]5O)O)O)C)O)O)CO)O,-5.185924417
ARHWPKZXBHOEEE-UHFFFAOYSA-N,Alclofenac,C=CCOc1ccc(CC(=O)O)cc1Cl,C=CCOc1ccc(cc1Cl)CC(=O)O,OC(=O)CC1=CC(=C(C=C1)OCC=C)Cl,-3.13
ARIFBMNLDCJVSE-UHFFFAOYSA-N,Coumachlor  (hemiketal isomer),CC1(O)CC(c2ccc(Cl)cc2)c2c(c3ccccc3oc2=O)O1,CC1(CC(c2c(c3ccccc3oc2=O)O1)c4ccc(cc4)Cl)O,CC1(CC(C2=C(C3=C(OC2=O)C=CC=C3)O1)C4=CC=C(C=C4)Cl)O,-5.84
ARIWANIATODDMH-UHFFFAOYSA-N,"2,3-Dihydroxypropyl laurate",CCCCCCCCCCCC(=O)OCC(O)CO,CCCCCCCCCCCC(=O)OCC(CO)O,CCCCCCCCCCCC(=O)OCC(O)CO,-4.660234439
AROXHZRAPPJOBJ-UHFFFAOYSA-O,,Cc1ccc(-n2n[n+]3c(cc([N+](=O)[O-])c4ccccc43)c2O)cc1,Cc1ccc(cc1)n2c(c3cc(c4ccccc4[n+]3n2)[N+](=O)[O-])O,O=[N+]([O-])C1=CC2=C(N(N=[N+]2C=3C1=CC=CC3)C=4C=CC(=CC4)C)O,-6.2454964
ARPVTHFVINIDNB-UHFFFAOYSA-N,,O=S(=O)(NCCN1CCCCC1)c1ccc(Nc2nccc(-c3cnc4ccccn34)n2)cc1,c1ccn2c(c1)ncc2c3ccnc(n3)Nc4ccc(cc4)S(=O)(=O)NCCN5CCCCC5,O=S(=O)(NCCN1CCCCC1)C=2C=CC(=CC2)NC=3N=CC=C(N3)C4=CN=C5N4C=CC=C5,-4.9586073
ARPZVEVODWRJQU-UHFFFAOYSA-N,glipizide,CC(C)CC1CCC(C(C)C(=O)O)CC1,CC(C)CC1CCC(CC1)C(C)C(=O)O,C(C)(C)CC1CCC(CC1)C(C)C(=O)O,-5.4879999999999995
ARQLKFUYVBMSHO-UHFFFAOYSA-N,,CCN(CC)C(=O)C(C)(C)c1ccc2[nH]c(-c3cc(C)cc(C)c3)c(CCNCCNS(=O)(=O)c3cccc4cnccc34)c2c1,CCN(CC)C(=O)C(C)(C)c1ccc2c(c1)c(c([nH]2)c3cc(cc(c3)C)C)CCNCCNS(=O)(=O)c4cccc5c4ccnc5,CCN(CC)C(=O)C(C)(C)C=1C=CC=2NC(=C(C2C1)CCNCCNS(=O)(=O)C=3C=CC=C4C3C=CN=C4)C=5C=C(C=C(C5)C)C,-5.853872
ARQOGCYMPUOVHK-UHFFFAOYSA-N,Aspidospermine,CC[C@@]12CCCN3CC[C@]4(c5cccc(OC)c5N(C(C)=O)[C@@H]4CC1)[C@H]32,CC[C@]12CCCN3[C@H]1[C@]4(CC3)c5cccc(c5N([C@@H]4CC2)C(=O)C)OC,CC[C@]12CCCN3[C@H]1[C@@]4(CC3)[C@@H](CC2)N(C5=C4C=CC=C5OC)C(=O)C,-1.327
ARRCKRNGGJHASO-UHFFFAOYSA-N,"2-Propanol, 1,3-bis(3-methylbutoxy)-",CC(C)CCOCC(O)COCCC(C)C,CC(C)CCOCC(COCCC(C)C)O,CC(C)CCOCC(O)COCCC(C)C,-1.3661
ARRSANOSOGNTIJ-UHFFFAOYSA-N,"Phosphinic acid, di-4-morpholinyl-, phenyl ester",O=P(Oc1ccccc1)(N1CCOCC1)N1CCOCC1,c1ccc(cc1)OP(=O)(N2CCOCC2)N3CCOCC3,P(=O)(N1CCOCC1)(N2CCOCC2)OC3=CC=CC=C3,0.3925
ARSKJXYLLONUAJ-UHFFFAOYSA-N,Ethylcellulose,CCCCN(CCOC(C)=O)c1ccc(/N=N/c2c(C#N)cc([N+](=O)[O-])cc2C#N)c(C)c1,CCCCN(CCOC(=O)C)c1ccc(c(c1)C)/N=N/c2c(cc(cc2C#N)[N+](=O)[O-])C#N,[N+](=O)(C=1C=C(C(=C(C1)C#N)/N=N/C2=C(C=C(C=C2)N(CCOC(=O)C)CCCC)C)C#N)[O-],-8.8809
ARSOXHMEZHBPOS-UHFFFAOYSA-N,"Naphtho[1,2-c]furan-1(3H)-one",O=C1OCc2ccc3ccccc3c21,c1ccc2c(c1)ccc3c2C(=O)OC3,O=C1OCC2=C1C3=C(C=C2)C=CC=C3,-3.3061
ARSRBNBHOADGJU-UHFFFAOYSA-N,"7,12-dimethylbenz[a]anthracene",Cc1c2ccccc2c(C)c2c1ccc1ccccc12,Cc1c2ccccc2c(c3c1ccc4c3cccc4)C,CC=1C=2C=CC=CC2C(=C3C1C=CC4=C3C=CC=C4)C,-7.02
ARUUDRZOVHJRDG-UHFFFAOYSA-N,2-{[4-(2-Chloroacetyl)phenyl]hydrazono}malononitrile,N#CC(C#N)=NNc1ccc(C(=O)CCl)cc1,c1cc(ccc1C(=O)CCl)NN=C(C#N)C#N,ClCC(=O)C1=CC=C(C=C1)NN=C(C#N)C#N,-3.19
ARWCZKJISXFBGI-UHFFFAOYSA-N,"(3,4-dihydroxyphenyl)-phenylmethanone",O=C(c1ccccc1)c1ccc(O)c(O)c1,c1ccc(cc1)C(=O)c2ccc(c(c2)O)O,OC=1C=CC(=CC1O)C(=O)C=2C=CC=CC2,-2.922810025
ARXWHNLHTJUEBG-UHFFFAOYSA-N,6-fluoro-1-(1-fluoro-2-methylpropan-2-yl)-4-oxo-7-piperazin-1-ylquinoline-3-carboxylic acid,CC(C)(CF)n1cc(C(=O)O)c(=O)c2cc(F)c(N3CCNCC3)cc21,CC(C)(CF)n1cc(c(=O)c2c1cc(c(c2)F)N3CCNCC3)C(=O)O,CC(C)(CF)N1C=C(C(=O)C2=C1C=C(C(=C2)F)N3CCNCC3)C(=O)O,-2.6015
ARXXSDYOSSAWCH-UHFFFAOYSA-N,,COC1CCC2CCN(C)C(=O)CCCN(C)C(=O)c3cc(C#N)ccc3OCC1O2,CN1CCC2CCC(C(O2)COc3ccc(cc3C(=O)N(CCCC1=O)C)C#N)OC,COC1CCC2CCN(C(=O)CCCN(C(=O)C3=CC(=CC=C3OCC1O2)C#N)C)C,-4.0
ARZUNQNWVZXAOQ-UHFFFAOYSA-N,,CC(C)Cn1c(=O)n(C)c(=O)c2cc(Cn3cnc4ccccc43)sc21,CC(C)Cn1c2c(cc(s2)Cn3cnc4c3cccc4)c(=O)n(c1=O)C,C=1C=CC=C2C1N(C=N2)CC3=CC4=C(S3)N(C(=O)N(C4=O)C)CC(C)C,-5.053171599999999
ASAHZDPKCCONIV-UHFFFAOYSA-N,"Hexanoic acid, 2,5-dimethyl-",CC(C)CCC(C)C(=O)O,CC(C)CCC(C)C(=O)O,C(=O)(C(CCC(C)C)C)O,-1.983
ASAXRKSDVDALDT-UHFFFAOYSA-N,"propan-2-yl 2,2,2-trifluoroacetate",CC(C)OC(=O)C(F)(F)F,CC(C)OC(=O)C(F)(F)F,CC(C)OC(=O)C(F)(F)F,-1.3359999999999999
ASDRGEKUFQCMBN-UHFFFAOYSA-N,,COc1ccc(-c2nnc(-c3ccc(OC)cc3)o2)cc1,COc1ccc(cc1)c2nnc(o2)c3ccc(cc3)OC,COC=1C=CC(=CC1)C2=NN=C(O2)C=3C=CC(=CC3)OC,-5.8239087
ASEJLJNYULOOOK-UHFFFAOYSA-N,"6,7-dimethoxyquinoxalin-5-amine",COc1cc2nccnc2c(N)c1OC,COc1cc2c(c(c1OC)N)nccn2,COC=1C=C2N=CC=NC2=C(C1OC)N,-1.71
ASFVEAUBJXEVMS-UHFFFAOYSA-N,,COc1cc(Nc2ccnc3ccccc23)ccc1C,Cc1ccc(cc1OC)Nc2ccnc3c2cccc3,COC=1C=C(C=CC1C)NC=2C=CN=C3C2C=CC=C3,-4.0531549
ASHVULSQMDWKFO-UHFFFAOYSA-N,5-(methoxymethyl)furan-2-carbaldehyde,COCc1ccc(C=O)o1,COCc1ccc(o1)C=O,O1C(=CC=C1COC)C=O,-0.4992
ASHZLURJHGQWMH-UHFFFAOYSA-N,,O=C(O)c1cc2cc(Cl)ccc2n1Cc1ccc(Cl)c(Cl)c1,c1cc(c(cc1Cn2c3ccc(cc3cc2C(=O)O)Cl)Cl)Cl,OC(=O)C1=CC=2C=C(C=CC2N1CC=3C=CC(=C(C3)Cl)Cl)Cl,-4.091515
ASPIQYFYSMQBHA-UHFFFAOYSA-N,,NC(=O)Nc1ccccc1Cl,c1ccc(c(c1)NC(=O)N)Cl,NC(=O)NC1=CC=CC=C1Cl,-1.5319999999999998
ASPUWARSRBZDQL-UHFFFAOYSA-N,,COc1ccc(Cl)c(Nc2ncnc3cc(OCC(O)CN(C)C(C)C)c(OC)cc23)c1,CC(C)N(C)CC(COc1cc2c(cc1OC)c(ncn2)Nc3cc(ccc3Cl)OC)O,COC=1C=CC(=C(C1)NC=2N=CN=C3C2C=C(C(=C3)OCC(O)CN(C)C(C)C)OC)Cl,-3.0915150000000002
ASRAWSBMDXVNLX-UHFFFAOYSA-N,pyrazolynate,Cc1ccc(S(=O)(=O)Oc2c(C(=O)c3ccc(Cl)cc3Cl)c(C)nn2C)cc1,Cc1ccc(cc1)S(=O)(=O)Oc2c(c(nn2C)C)C(=O)c3ccc(cc3Cl)Cl,CN1N=C(C(=C1OS(=O)(=O)C=2C=CC(=CC2)C)C(=O)C=3C=CC(=CC3Cl)Cl)C,-6.895
ASTPZUZCACLJJH-UHFFFAOYSA-N,,O=C(O)CC(COc1cccc(NC(=O)Cc2ccc3nc(Nc4ccccc4)oc3c2)c1)c1ccccn1,c1ccc(cc1)Nc2nc3ccc(cc3o2)CC(=O)Nc4cccc(c4)OCC(CC(=O)O)c5ccccn5,OC(=O)CC(COC=1C=CC=C(C1)NC(=O)CC=2C=CC=3N=C(OC3C2)NC=4C=CC=CC4)C=5C=CC=CN5,-3.0362122000000005
ASUTZQLVASHGKV-UHFFFAOYSA-N,galantamine hydrobromide,COc1ccc2c3c1O[C@H]1C[C@@H](O)C=C[C@@]31CCN(C)C2,CN1CC[C@@]23C=C[C@@H](C[C@@H]2Oc4c3c(ccc4OC)C1)O,CN1CC[C@@]23C=C[C@@H](C[C@@H]2OC=4C3=C(C=CC4OC)C1)O,-1.5661663419999998
ASVDRLYVNFOSCI-UHFFFAOYSA-N,6-methylchyrsene,Cc1cc2c3ccccc3ccc2c2ccccc12,Cc1cc2c3ccccc3ccc2c4c1cccc4,CC=1C=C2C=3C=CC=CC3C=CC2=C4C1C=CC=C4,-6.57
ASWFWIACWHAFNP-UHFFFAOYSA-N,"Benzenesulfonamide, 4-amino-N-(5-methyl-1,2,4-ox",Cc1nc(NS(=O)(=O)c2ccc(N)cc2)no1,Cc1nc(no1)NS(=O)(=O)c2ccc(cc2)N,S(=O)(=O)(NC=1N=C(ON1)C)C2=CC=C(C=C2)N,-2.352
ASWVTGNCAZCNNR-UHFFFAOYSA-N,sulfamethazine;  sulfadimidine,Cc1cc(C)nc(NS(=O)(=O)c2ccc(N)cc2)n1,Cc1cc(nc(n1)NS(=O)(=O)c2ccc(cc2)N)C,S(=O)(=O)(NC=1N=C(C=C(N1)C)C)C=2C=CC(=CC2)N,-2.27
ASXKMUVTVSZDSA-UHFFFAOYSA-N,,NS(=O)(=O)c1ccc(S(=O)(=O)c2ccc(O)cc2)o1,c1cc(ccc1O)S(=O)(=O)c2ccc(o2)S(=O)(=O)N,C1=C(C=CC(=C1)S(=O)(=O)C2=CC=C(O2)S(=O)(=O)N)O,-2.403
ATBVEMCPWCNKAL-UHFFFAOYSA-N,,NC(=O)c1cc(-c2ccccc2)sc1NC(N)=S,c1ccc(cc1)c2cc(c(s2)NC(=S)N)C(=O)N,NC(=O)C=1C=C(SC1NC(=S)N)C=2C=CC=CC2,-5.408935400000001
ATCBPVDYYNJHSG-UHFFFAOYSA-N,"6-methoxy-2-N-methylpyridine-2,3-diamine dihydrochloride",CNc1nc(OC)ccc1N,CNc1c(ccc(n1)OC)N,CNC=1N=C(C=CC1N)OC,0.381911546
ATCHORGCVUYPKA-UHFFFAOYSA-N,,COc1cc2ncnc(Nc3cccc(F)c3F)c2cc1OCCCN1CCOCC1,COc1cc2c(cc1OCCCN3CCOCC3)c(ncn2)Nc4cccc(c4F)F,COC=1C=C2N=CN=C(C2=CC1OCCCN3CCOCC3)NC=4C=CC=C(C4F)F,-4.1824593
ATCLRTKFQOUIKP-UHFFFAOYSA-N,"4-[(E)-2-(5-cyano-2-hydroxy-1,4-dimethyl-6-oxo-1,6-dihydropyridin-3-yl)diazen-1-yl]-N-(2-ethylhexyl)benzamide",CCCCC(CC)CNC(=O)c1ccc(N/N=C2\C(=O)N(C)C(=O)C(C#N)=C2C)cc1,CCCCC(CC)CNC(=O)c1ccc(cc1)N/N=C\2/C(=C(C(=O)N(C2=O)C)C#N)C,CCCCC(CC)CNC(=O)C=1C=CC(=CC1)N/N=C\2/C(=C(C(=O)N(C2=O)C)C#N)C,-7.024905427999999
ATCRIUVQKHMXSH-UHFFFAOYSA-N,"2,4-DICHLOROBENZOIC ACID",O=C(O)c1ccc(Cl)cc1Cl,c1cc(c(cc1Cl)Cl)C(=O)O,OC(=O)C=1C=CC(=CC1Cl)Cl,-2.60165
ATCWBLHLEMDUCP-UHFFFAOYSA-N,N-PIPERIDIN-1-YLMETHYLBENZAMIDE,O=C(NCN1CCCCC1)c1ccccc1,c1ccc(cc1)C(=O)NCN2CCCCC2,O=C(NCN1CCCCC1)C2=CC=CC=C2,-2.15
ATEAASNFYTUARU-UHFFFAOYSA-N,"Benzenesulfonamide, 4-amino-N-1,3,4-thiadiazol-2",Nc1ccc(S(=O)(=O)Nc2nncs2)cc1,c1cc(ccc1N)S(=O)(=O)Nc2nncs2,NC=1C=CC(=CC1)S(=O)(=O)NC=2SC=NN2,-2.8684
ATEQZNYGXGCDRJ-UHFFFAOYSA-N,,N#Cc1ccc(N2CCN(S(=O)(=O)CC(CCc3ncc(F)cn3)N(O)C=O)CC2)cc1,c1cc(ccc1C#N)N2CCN(CC2)S(=O)(=O)CC(CCc3ncc(cn3)F)N(C=O)O,ON(C=O)C(CCC=1N=CC(=CN1)F)CS(=O)(=O)N2CCN(CC2)C=3C=CC(=CC3)C#N,-3.649752
ATGFTMUSEPZNJD-UHFFFAOYSA-N,"1,1':3',1''-terphenyl-2'-ol",Oc1c(-c2ccccc2)cccc1-c1ccccc1,c1ccc(cc1)c2cccc(c2O)c3ccccc3,OC=1C(=CC=CC1C=2C=CC=CC2)C=3C=CC=CC3,-5.683955052999999
ATGSEFQDPZRJLH-UHFFFAOYSA-N,,N#Cc1cccc(C(=O)NCCCCOc2ccccc2F)c1,c1ccc(c(c1)OCCCCNC(=O)c2cccc(c2)C#N)F,FC=1C=CC=CC1OCCCCNC(=O)C=2C=CC=C(C2)C#N,-4.1580152
ATGUVEKSASEFFO-UHFFFAOYSA-N,"1-N-phenylbenzene-1,4-diamine",Nc1ccc(Nc2ccccc2)cc1,c1ccc(cc1)Nc2ccc(cc2)N,NC=1C=CC(=CC1)NC=2C=CC=CC2,-2.563130476
ATHOJYKGQMQYJU-UHFFFAOYSA-N,,Cc1c(C2CCCC2)sc(NC(N)=O)c1C#N,Cc1c(c(sc1C2CCCC2)NC(=O)N)C#N,CC=1C(=C(SC1C2CCCC2)NC(=O)N)C#N,-5.3372421999999995
ATLCXJMKRFWTPT-UHFFFAOYSA-N,,O=C(CN1CCN(Cc2cc(Cl)ccc2[N+](=O)[O-])CC1)NCC12CC3CC(CC(C3)C1)C2,c1cc(c(cc1Cl)CN2CCN(CC2)CC(=O)NCC34CC5CC(C3)CC(C5)C4)[N+](=O)[O-],ClC=1C=CC(=C(C1)CN2CCN(CC2)CC(=O)NCC34CC5CC(C3)CC(C4)C5)[N+](=O)[O-],-5.4876153
ATLQNJKHTYSMEM-UHFFFAOYSA-N,,COc1ccc(Nc2nc(Nc3ccc(C(=O)NCCCN4CCCC4=O)cc3)ncc2Br)cc1,COc1ccc(cc1)Nc2c(cnc(n2)Nc3ccc(cc3)C(=O)NCCCN4CCCC4=O)Br,COC=1C=CC(=CC1)NC=2N=C(N=CC2Br)NC=3C=CC(=CC3)C(=O)NCCCN4CCCC4=O,-5.2757241
ATNJUVPMRFIJJA-UHFFFAOYSA-N,Heptyl 3-bromo-4-hydroxybenzoate,CCCCCCCOC(=O)c1ccc(O)c(Br)c1,CCCCCCCOC(=O)c1ccc(c(c1)Br)O,CCCCCCCOC(=O)C1=CC(=C(C=C1)O)Br,-4.4195
ATOGCCUJQSITTI-UHFFFAOYSA-N,"D-Cysteine, L-leucyl-, (2.fwdarw.2')-disulfide",CC(C)CC(N)C(=O)NC(CSSCC(NC(=O)C(N)CC(C)C)C(=O)O)C(=O)O,CC(C)CC(C(=O)NC(CSSCC(C(=O)O)NC(=O)C(CC(C)C)N)C(=O)O)N,CC(CC(C(=O)NC(CSSCC(NC(=O)C(CC(C)C)N)C(=O)O)C(=O)O)N)C,-0.48
ATPFMBHTMKBVLS-UHFFFAOYSA-N,"N,N'-bis(3-phenylprop-2-en-1-ylidene)hexane-1,6-diamine",C(=C/c1ccccc1)\C=N\CCCCCC/N=C/C=C/c1ccccc1,c1ccc(cc1)/C=C/C=N/CCCCCC/N=C/C=C/c2ccccc2,C(CCC/N=C/C=C/C=1C=CC=CC1)CC/N=C/C=C/C=2C=CC=CC2,-3.8938695360000004
ATQXNYQCZFMIKY-UHFFFAOYSA-N,"4-Quinolinecarboxylic acid, 1,2-dihydro-6-methox",COc1ccc2[nH]c(=O)cc(C(=O)O)c2c1,COc1ccc2c(c1)c(cc(=O)[nH]2)C(=O)O,COC=1C=CC=2NC(=O)C=C(C2C1)C(=O)O,-3.1102
ATROHALUCMTWTB-UHFFFAOYSA-N,Phoxim,CCO[P+]([S-])(OCC)O/N=C(\C#N)c1ccccc1,CCO[P+](OCC)(O/N=C(\C#N)/c1ccccc1)[S-],[S-][P+](O/N=C(/C1=CC=CC=C1)\C#N)(OCC)OCC,-4.8619
ATWDCFYCTBWPDG-UHFFFAOYSA-N,,COCCNC(=O)c1ccc(Nc2ccc3c(c2)c2ccccc2n3C(C)C)nn1,CC(C)n1c2ccccc2c3c1ccc(c3)Nc4ccc(nn4)C(=O)NCCOC,COCCNC(=O)C=1C=CC(=NN1)NC=2C=CC=3N(C=4C=CC=CC4C3C2)C(C)C,-5.8860566
ATXLALDFCMZNHY-UHFFFAOYSA-N,1-[(E)-2-(4-methyl-2-nitrophenyl)diazen-1-yl]naphthalen-2-ol,Cc1ccc(N/N=C2\C(=O)C=Cc3ccccc32)c([N+](=O)[O-])c1,Cc1ccc(c(c1)[N+](=O)[O-])N/N=C\2/c3ccccc3C=CC2=O,CC=1C=CC(=C(C1)[N+](=O)[O-])N/N=C/2\C(=O)C=CC3=C2C=CC=C3,-7.96903067
ATXPWKWYLDEURI-UHFFFAOYSA-N,"1-Amino-4-(ethylamino)-9,10-dioxo-9,10-dihydroanthracene-2-carbonitrile",CCNc1cc(C#N)c(N)c2c1C(=O)c1ccccc1C2=O,CCNc1cc(c(c2c1C(=O)c3ccccc3C2=O)N)C#N,CCNC=1C=C(C(=C2C1C(=O)C3=C(C=CC=C3)C2=O)N)C#N,-7.638140296
ATYJAGSSMXWONK-UHFFFAOYSA-N,"Hexanedioic acid, 2,5-dimethyl-",CCC(CCC(CC)C(=O)O)C(=O)O,CCC(CCC(CC)C(=O)O)C(=O)O,C(=O)(C(CCC(C(=O)O)CC)CC)O,-0.4798
ATYOEBDELOTKGV-UHFFFAOYSA-N,,O=C(CNC(=O)c1cc2sc(Cl)c(Cl)c2[nH]1)Nc1ccccc1,c1ccc(cc1)NC(=O)CNC(=O)c2cc3c([nH]2)c(c(s3)Cl)Cl,ClC=1SC=2C=C(NC2C1Cl)C(=O)NCC(=O)NC=3C=CC=CC3,-6.3372421999999995
ATZQWAYWRBSTCE-UHFFFAOYSA-N,"L-Cysteine, S,S'-1,5-pentanediylbis-",NC(CSCCCCCSCC(N)C(=O)O)C(=O)O,C(CCSCC(C(=O)O)N)CCSCC(C(=O)O)N,NC(CSCCCCCSCC(N)C(=O)O)C(=O)O,-2.91
AUABLMCZBSGFAB-UHFFFAOYSA-N,,CCc1cccc(C)c1CNc1cc(C(=O)N2CCN(c3ccncc3)CC2)cn2c(C)c(C)nc12,CCc1cccc(c1CNc2cc(cn3c2nc(c3C)C)C(=O)N4CCN(CC4)c5ccncc5)C,CCC=1C=CC=C(C1CNC2=CC(=CN3C2=NC(=C3C)C)C(=O)N4CCN(CC4)C=5C=CN=CC5)C,-3.6197888
AUAKUQSHJNUTQP-UHFFFAOYSA-N,,CN(C)CCNc1ccccc1S(=O)(=O)c1ccc(NC(=O)C(C)(O)C(F)(F)F)c(Cl)c1,CC(C(=O)Nc1ccc(cc1Cl)S(=O)(=O)c2ccccc2NCCN(C)C)(C(F)(F)F)O,CN(C)CCNC=1C=CC=CC1S(=O)(=O)C=2C=CC(=C(C2)Cl)NC(=O)C(C)(O)C(F)(F)F,-3.6814983999999997
AUEJLPRZGVVDNU-UHFFFAOYSA-N,L-tyrosyl-L-leucine,CC(C)CC(NC(=O)C(N)Cc1ccc(O)cc1)C(=O)O,CC(C)CC(C(=O)O)NC(=O)C(Cc1ccc(cc1)O)N,CC(C)CC(NC(=O)C(N)CC1=CC=C(C=C1)O)C(=O)O,-2.07
AUEYCHJTTCJDQE-UHFFFAOYSA-N,,COc1cc2c(Oc3ccc4[nH]c(C)cc4c3)ncnc2cc1OCCN1CCOCC1,Cc1cc2cc(ccc2[nH]1)Oc3c4cc(c(cc4ncn3)OCCN5CCOCC5)OC,COC=1C=C2C(=NC=NC2=CC1OCCN3CCOCC3)OC=4C=CC=5NC(=CC5C4)C,-5.070581099999999
AUFSOOYCQYDGES-UHFFFAOYSA-N,phenylpropylmethylamine,CNCC(C)c1ccccc1,CC(CNC)c1ccccc1,CNCC(C)C=1C=CC=CC1,-1.095
AUFZRCJENRSRLY-UHFFFAOYSA-N,"2,3,5-trimethylbenzene-1,4-diol",Cc1cc(O)c(C)c(C)c1O,Cc1cc(c(c(c1O)C)C)O,CC=1C=C(C(=C(C1O)C)C)O,-1.6381633169999998
AUHHYELHRWCWEZ-UHFFFAOYSA-N,"tetrachloro-1,3-dihydro-2-benzofuran-1,3-dione",O=C1OC(=O)c2c(Cl)c(Cl)c(Cl)c(Cl)c21,c12c(c(c(c(c1Cl)Cl)Cl)Cl)C(=O)OC2=O,ClC=1C(=C(C2=C(C1Cl)C(=O)OC2=O)Cl)Cl,-4.553059806
AUJBYHKZNPPODV-UHFFFAOYSA-N,"Hexanamide, N-(aminocarbonyl)-2-ethylidene-",C/C=C(\CCCC)C(=O)NC(N)=O,CCCC/C(=C\C)/C(=O)NC(=O)N,O=C(NC(=O)N)/C(=C\C)/CCCC,-2.7880000000000003