inchikey,Name,SMILES_stand,SMILES,kekSmiles,logS
KAAQPMPUQHKLLE-UHFFFAOYSA-N,"1-CYCLOHEXENE-1,4-DICARBOXYLIC  ACID",O=C(O)C1=CCC(C(=O)O)CC1,C1CC(=CCC1C(=O)O)C(=O)O,OC(=O)C1CCC(=CC1)C(=O)O,-2.93
KAATUXNTWXVJKI-UHFFFAOYSA-N,Cypermethrin,CC1(C)[C@@H](C=C(Cl)Cl)[C@H]1C(=O)OC(C#N)c1cccc(Oc2ccccc2)c1,CC1([C@H]([C@H]1C(=O)OC(C#N)c2cccc(c2)Oc3ccccc3)C=C(Cl)Cl)C,ClC(=CC1C(C1C(=O)OC(C2=CC(=CC=C2)OC3=CC=CC=C3)C#N)(C)C)Cl,-7.8182
KAAZGRCFKIVZQI-UHFFFAOYSA-N,,O=C1NC(=O)C(CCc2ncc(F)cn2)(CS(=O)(=O)N2CCN(c3ccc(F)cc3)CC2)N1,c1cc(ccc1N2CCN(CC2)S(=O)(=O)CC3(C(=O)NC(=O)N3)CCc4ncc(cn4)F)F,FC=1C=CC(=CC1)N2CCN(CC2)S(=O)(=O)CC3(NC(=O)NC3=O)CCC=4N=CC(=CN4)F,-5.154902
KABDXMXJNHRMMO-UHFFFAOYSA-N,propan-2-yl 2-(6-methoxynaphthalen-2-yl)propanoate,COc1ccc2cc(C(C)C(=O)OC(C)C)ccc2c1,CC(C)OC(=O)C(C)c1ccc2cc(ccc2c1)OC,COC1=CC=C2C=C(C=CC2=C1)C(C)C(=O)OC(C)C,-5.48
KADKFCXBDLEFEZ-UHFFFAOYSA-N,,Cc1ccc(NC(=O)c2cccc3c2oc2ccccc23)cc1NC(=O)c1ccnc(NCC(C)(C)CN(C)C)c1,Cc1ccc(cc1NC(=O)c2ccnc(c2)NCC(C)(C)CN(C)C)NC(=O)c3cccc4c3oc5c4cccc5,CN(C)CC(C)(C)CNC=1C=C(C=CN1)C(=O)NC=2C=C(C=CC2C)NC(=O)C=3C=CC=C4C3OC5=C4C=CC=C5,-4.401456700000001
KAHTUTUIWFIUTC-UHFFFAOYSA-N,"Sulfanilamide, N1-(1,4-dihydro-1,4-dioxo-2-napht",Nc1ccc(S(=O)(=O)NC2=CC(=O)c3ccccc3C2=O)cc1,c1ccc2c(c1)C(=O)C=C(C2=O)NS(=O)(=O)c3ccc(cc3)N,S(=O)(=O)(NC1=CC(=O)C2=C(C=CC=C2)C1=O)C=3C=CC(=CC3)N,-3.863
KAIBBGAUUAZILN-UHFFFAOYSA-N,,COc1cc2c(Nc3cnc(CNc4cccc(F)c4)nc3)ncnc2cc1OCCCN1CCC(O)CC1,COc1cc2c(cc1OCCCN3CCC(CC3)O)ncnc2Nc4cnc(nc4)CNc5cccc(c5)F,COC=1C=C2C(=NC=NC2=CC1OCCCN3CCC(CC3)O)NC=4C=NC(=NC4)CNC=5C=CC=C(C5)F,-3.9586072999999997
KAKSOKFABYJBCC-UHFFFAOYSA-N,,COc1ccc(-c2cnn(C3CCS(=O)(=O)C3)c2N)cc1,COc1ccc(cc1)c2cnn(c2N)C3CCS(=O)(=O)C3,COC=1C=CC(=CC1)C=2C=NN(C2N)C3CCS(=O)(=O)C3,-4.086186100000001
KAKXOESNHIUYJT-UHFFFAOYSA-N,4-ACETYLPHENYL  ISOTHIOCYANATE;  1-Acetyl-4-isothiocyanatobenzene,CC(=O)c1ccc(N=C=S)cc1,CC(=O)c1ccc(cc1)N=C=S,CC(=O)C1=CC=C(C=C1)N=C=S,-4.02
KALFVDDBBPRATR-UHFFFAOYSA-N,,CC1C=C2C(CC1)C2(C)C,CC1CCC2C(=C1)C2(C)C,CC1CCC2C(=C1)C2(C)C,-4.67
KANLOADZXMMCQA-UHFFFAOYSA-N,2-Methylphenanthrene,Cc1ccc2c(ccc3ccccc32)c1,Cc1ccc2c(c1)ccc3c2cccc3,CC=1C=CC=2C(C1)=CC=C3C2C=CC=C3,-5.84
KAPSPGRBTOUERH-UHFFFAOYSA-N,,CCN(Cc1cc(S(C)(=O)=O)ccc1OCc1ccccc1)c1ccc(C(=O)NS(=O)(=O)Cc2ccccc2)cn1,CCN(Cc1cc(ccc1OCc2ccccc2)S(=O)(=O)C)c3ccc(cn3)C(=O)NS(=O)(=O)Cc4ccccc4,CCN(CC=1C=C(C=CC1OCC=2C=CC=CC2)S(=O)(=O)C)C=3C=CC(=CN3)C(=O)NS(=O)(=O)CC=4C=CC=CC4,-4.3098039
KAQBNBSMMVTKRN-UHFFFAOYSA-N,"2,4,6-TRINITROBENZOIC ACID",O=C(O)c1c([N+](=O)[O-])cc([N+](=O)[O-])cc1[N+](=O)[O-],c1c(cc(c(c1[N+](=O)[O-])C(=O)O)[N+](=O)[O-])[N+](=O)[O-],OC(=O)C=1C(=CC(=CC1[N+](=O)[O-])[N+](=O)[O-])[N+](=O)[O-],-1.0979999999999999
KAQZWOQBQCGPAW-UHFFFAOYSA-N,,CC(C)CC(NC(=O)Cc1ccc2nc(NC(C)(C)CC(C)(C)C)oc2c1)C(=O)NC(CC(=O)O)c1ccc2c(c1)OCO2,CC(C)CC(C(=O)NC(CC(=O)O)c1ccc2c(c1)OCO2)NC(=O)Cc3ccc4c(c3)oc(n4)NC(C)(C)CC(C)(C)C,CC(C)CC(NC(=O)CC=1C=CC=2N=C(OC2C1)NC(C)(C)CC(C)(C)C)C(=O)NC(CC(=O)O)C=3C=CC4=C(C3)OCO4,-3.2218487000000002
KARQHHMQOVRDNL-UHFFFAOYSA-N,"4,7-Methano-1H-indenol, 3a,4,5,6,7,7a-hexahydro-, acetate",CC(=O)OC1=CCC2C3CCC(C3)C12,CC(=O)OC1=CCC2C1C3CCC2C3,CC(=O)OC1=CCC2C1C3CCC2C3,-3.01
KAUQJMHLAFIZDU-UHFFFAOYSA-N,6-Hydroxy-2-naphthoic acid,O=C(O)c1ccc2cc(O)ccc2c1,c1cc(cc2c1cc(cc2)O)C(=O)O,OC(=O)C=1C=CC=2C=C(C=CC2C1)O,-3.278971443
KAXOGJIHHUQJLP-UHFFFAOYSA-O,,Oc1c2[n+](nn1-c1ccc(Cl)cc1)CCCC2,c1cc(ccc1n2c(c3[n+](n2)CCCC3)O)Cl,OC1=C2[N+](=NN1C=3C=CC(=CC3)Cl)CCCC2,-1.8019241000000001
KAXSSYLASIQHBP-UHFFFAOYSA-N,"Sulfanilamide, N1-Purin-6-yl-",Nc1ccc(S(=O)(=O)Nc2ncnc3nc[nH]c23)cc1,c1cc(ccc1N)S(=O)(=O)Nc2c3c(nc[nH]3)ncn2,C=1C=C(C=CC1S(=O)(=O)NC2=NC=NC3=C2NC=N3)N,-4.349
KBAQMIYTOZVRBC-UHFFFAOYSA-N,"1,1,3,3-tetramethylbutyl hydroperoxide",CCOC(=O)/C(=N/Nc1ccc([N+](=O)[O-])cc1)C(=O)c1nn2c(nc(=O)c3ccccc32)s1,CCOC(=O)/C(=N/Nc1ccc(cc1)[N+](=O)[O-])/C(=O)c2nn3c4ccccc4c(=O)nc3s2,CCOC(=O)/C(=N/NC=1C=CC(=CC1)[N+](=O)[O-])/C(=O)C2=NN3C(S2)=NC(=O)C4=C3C=CC=C4,-2.22181655
KBDLTYNZHQRMQC-UHFFFAOYSA-N,P-MEO-B-PHENYLPROPIONIC ACID,COc1ccc(C(C)C(=O)O)cc1,CC(c1ccc(cc1)OC)C(=O)O,C(=O)(C(C1=CC=C(C=C1)OC)C)O,-2.214
KBEBGUQPQBELIU-UHFFFAOYSA-N,ethyl_cinnamate,CCOC(=O)/C=C/c1ccccc1,CCOC(=O)/C=C/c1ccccc1,O=C(OCC)/C=C/C1=CC=CC=C1,-3.0
KBFMKHFVONCAAY-UHFFFAOYSA-N,,Cc1cc(Nc2nc(NCc3cc(-c4ccccn4)no3)ncc2Cl)[nH]n1,Cc1cc([nH]n1)Nc2c(cnc(n2)NCc3cc(no3)c4ccccn4)Cl,CC=1C=C(NN1)NC=2N=C(N=CC2Cl)NCC3=CC(=NO3)C=4C=CC=CN4,-5.1123827
KBFPRSLICSAHJO-UHFFFAOYSA-N,,O=CN(O)C(CCc1ccncc1)CS(=O)(=O)c1ccc(Oc2ccc(Cl)cc2)cc1,c1cc(ccc1Oc2ccc(cc2)Cl)S(=O)(=O)CC(CCc3ccncc3)N(C=O)O,ON(C=O)C(CCC=1C=CN=CC1)CS(=O)(=O)C=2C=CC(=CC2)OC=3C=CC(=CC3)Cl,-4.6197888
KBFZYVRSFCSDEJ-UHFFFAOYSA-N,,COc1ccc(C(=O)c2ccc(S(N)(=O)=O)s2)cc1,COc1ccc(cc1)C(=O)c2ccc(s2)S(=O)(=O)N,C1=C(C=CC(=C1)C(=O)C2=CC=C(S2)S(=O)(=O)N)OC,-4.473
KBGVHZBKJITMSF-UHFFFAOYSA-N,,COC1CCC2CCOc3ccc(C#N)cc3C(=O)N(C)CC(OC)C(C)C(=O)N(C)CC1O2,CC1C(CN(C(=O)c2cc(ccc2OCCC3CCC(C(O3)CN(C1=O)C)OC)C#N)C)OC,COC1CCC2CCOC3=CC=C(C=C3C(=O)N(CC(C(C(=O)N(CC1O2)C)C)OC)C)C#N,-4.0075
KBIHXLZQCDCWOC-UHFFFAOYSA-N,,CCN(C(=O)Cc1ccc(Cl)nc1)C1CCN(CCC(c2ccccc2)c2ccccc2)CC1,CCN(C1CCN(CC1)CCC(c2ccccc2)c3ccccc3)C(=O)Cc4ccc(nc4)Cl,CCN(C1CCN(CC1)CCC(C=2C=CC=CC2)C=3C=CC=CC3)C(=O)CC=4C=CC(=NC4)Cl,-3.853872
KBKLKHJKTXJHPE-UHFFFAOYSA-N,"sodium 4-chloro-3-{4-[(E)-2-[5-chloro-2-(2-chlorophenoxy)phenyl]diazen-1-yl]-3-methyl-5-oxo-4,5-dihydro-1H-pyrazol-1-yl}benzene-1-sulfonate",CC1=NN(c2cc(S(=O)(=O)O)ccc2Cl)C(=O)C1/N=N/c1cc(Cl)ccc1Oc1ccccc1Cl,CC1=NN(C(=O)C1/N=N/c2cc(ccc2Oc3ccccc3Cl)Cl)c4cc(ccc4Cl)S(=O)(=O)O,CC1=NN(C(=O)C1/N=N/C=2C=C(C=CC2OC=3C=CC=CC3Cl)Cl)C=4C=C(C=CC4Cl)S(=O)(=O)O,-2.316110793
KBLFLMTZLPQGIF-UHFFFAOYSA-N,"2(1H)-Azecinone, octahydro-",O=C1CCCCCCCCN1,C1CCCCNC(=O)CCC1,O=C1CCCCCCCCN1,-1.07385
KBLGZYOVYFTAOB-UHFFFAOYSA-N,"Benzenesulfonamide, 4-amino-N-(3-methyl-5-isoxaz",Cc1cc(NS(=O)(=O)c2ccc(N)cc2)on1,Cc1cc(on1)NS(=O)(=O)c2ccc(cc2)N,S(=O)(=O)(NC1=CC(=NO1)C)C2=CC=C(C=C2)N,-2.387
KBOPZPXVLCULAV-UHFFFAOYSA-N,mesalamine,Nc1ccc(O)c(C(=O)O)c1,c1cc(c(cc1N)C(=O)O)O,NC1=CC(=C(C=C1)O)C(=O)O,-2.259
KBPUBCVJHFXPOC-UHFFFAOYSA-N,"Ethyl 3,4-dihydroxybenzoate",CCOC(=O)c1ccc(O)c(O)c1,CCOC(=O)c1ccc(c(c1)O)O,CCOC(=O)C=1C=CC(=C(C1)O)O,-1.8559999999999999
KBQUABPEEJJZMU-UHFFFAOYSA-N,,Cc1cc(Nc2nc(NCCc3cnc[nH]3)ncc2Cl)[nH]n1,Cc1cc([nH]n1)Nc2c(cnc(n2)NCCc3cnc[nH]3)Cl,CC=1C=C(NN1)NC=2N=C(N=CC2Cl)NCCC3=CN=CN3,-3.5376019999999997