inchikey,Name,SMILES_stand,SMILES,kekSmiles,logS
DDYWJZBULJBGPH-UHFFFAOYSA-N,,COc1cc2c(Nc3cnc(CNc4cccc(F)c4)nc3)ncnc2cc1OCCCN1CCCC(O)C1,COc1cc2c(cc1OCCCN3CCCC(C3)O)ncnc2Nc4cnc(nc4)CNc5cccc(c5)F,COC=1C=C2C(=NC=NC2=CC1OCCCN3CCCC(C3)O)NC=4C=NC(=NC4)CNC=5C=CC=C(C5)F,-4.2596373
DEBPULBHEUYIDA-UHFFFAOYSA-N,,COc1cc2c(C3C(=O)Nc4ccccc43)ncnc2cc1OCCCN1CCOCC1,COc1cc2c(cc1OCCCN3CCOCC3)ncnc2C4c5ccccc5NC4=O,COC=1C=C2C(=NC=NC2=CC1OCCCN3CCOCC3)C4C(=O)NC5=C4C=CC=C5,-4.552842
DECIPOUIJURFOJ-UHFFFAOYSA-N,"6-Ethoxy-2,2,4-trimethyl-1,2-dihydroquinoline",CCOc1ccc2c(c1)C(C)=CC(C)(C)N2,CCOc1ccc2c(c1)C(=CC(N2)(C)C)C,O(C1=CC=C2C(=C1)C(=CC(N2)(C)C)C)CC,-3.491985669
DEDOPGXGGQYYMW-UHFFFAOYSA-N,S-Ethyl azepane-1-carbothioate,CCSC(=O)N1CCCCCC1,CCSC(=O)N1CCCCCC1,N1(CCCCCC1)C(=O)SCC,-2.3275
DEGZSTUNWMGQCY-UHFFFAOYSA-N,,CC1CN(C(C)CO)C(=O)CCCn2cc(nn2)COC1CN(C)C(=O)Nc1ccc2c(c1)OCO2,CC1CN(C(=O)CCCn2cc(nn2)COC1CN(C)C(=O)Nc3ccc4c(c3)OCO4)C(C)CO,CC(CO)N1CC(C(OCC2=CN(N=N2)CCCC1=O)CN(C)C(=O)NC3=CC=C4C(=C3)OCO4)C,-4.0
DEIYBEFARMXOCQ-UHFFFAOYSA-N,,NC(=O)CCC(=O)c1ccc2oc(-c3ccc(S(N)(=O)=O)cc3)cc2c1,c1cc(ccc1c2cc3cc(ccc3o2)C(=O)CCC(=O)N)S(=O)(=O)N,NC(=O)CCC(=O)C=1C=CC=2OC(=CC2C1)C=3C=CC(=CC3)S(=O)(=O)N,-5.79588
DEKGZHOMRNEQIN-UHFFFAOYSA-N,,COc1cc2c(Nc3ccc(NC(=O)c4ccccc4)cc3)ncnc2cc1OCCCNCC1CC1,COc1cc2c(cc1OCCCNCC3CC3)ncnc2Nc4ccc(cc4)NC(=O)c5ccccc5,COC=1C=C2C(=NC=NC2=CC1OCCCNCC3CC3)NC=4C=CC(=CC4)NC(=O)C=5C=CC=CC5,-3.1487417
DEKWZWCFHUABHE-UHFFFAOYSA-N,Coumachlor,CC(=O)CC(c1ccc(Cl)cc1)c1c(O)c2ccccc2oc1=O,CC(=O)CC(c1ccc(cc1)Cl)c2c(c3ccccc3oc2=O)O,O1C(=O)C(=C(C=2C1=CC=CC2)O)C(C=3C=CC(=CC3)Cl)CC(=O)C,-5.8389999999999995
DEMBLPGWNXUBIQ-UHFFFAOYSA-N,2-Dodecylhexadecan-1-ol,CCCCCCCCCCCCCCC(CO)CCCCCCCCCCCC,CCCCCCCCCCCCCCC(CCCCCCCCCCCC)CO,CCCCCCCCCCCCCCC(CO)CCCCCCCCCCCC,-5.613799888
DEOMXAFNZXYCBQ-UHFFFAOYSA-N,N-phosphorylated Cimicoxib;  N-[4-(4-CHLORO-5-(3-FLUORO-4-METHOXYPHENYL)IMIDAZOL-1-YL)PHENYLSULFONYL]PHOSPHORAMIDIC ACID,COc1ccc(-c2c(Cl)ncn2-c2ccc(S(=O)(=O)NP(=O)(O)O)cc2)cc1F,COc1ccc(cc1F)c2c(ncn2c3ccc(cc3)S(=O)(=O)NP(=O)(O)O)Cl,COC1=C(C=C(C=C1)C2=C(N=CN2C3=CC=C(C=C3)S(=O)(=O)NP(=O)(O)O)Cl)F,-2.55
DEQITUUQPICUMR-UHFFFAOYSA-N,Dihydroergocristine,CC(C)C1(NC(=O)C2CC3c4cccc5[nH]cc(c45)CC3N(C)C2)OC2(O)C3CCCN3C(=O)C(Cc3ccccc3)N2C1=O,CC(C)C1(C(=O)N2C(C(=O)N3CCCC3C2(O1)O)Cc4ccccc4)NC(=O)C5CC6c7cccc8c7c(c[nH]8)CC6N(C5)C,CC(C)C1(OC2(C3CCCN3C(=O)C(N2C1=O)CC4=CC=CC=C4)O)NC(=O)C5CC6C(CC7=CNC8=C7C6=CC=C8)N(C5)C,-5.27
DEQZTKGFXNUBJL-UHFFFAOYSA-N,"N-(1,3-benzothiazol-2-ylsulfanyl)cyclohexanamine",c1ccc2sc(SNC3CCCCC3)nc2c1,c1ccc2c(c1)nc(s2)SNC3CCCCC3,C1CCC(CC1)NSC=2SC=3C=CC=CC3N2,-5.91707134
DERZBLKQOCDDDZ-UHFFFAOYSA-N,cinnarizine;  stugeron,C(=C/c1ccccc1)\CN1CCN(C(c2ccccc2)c2ccccc2)CC1,c1ccc(cc1)/C=C/CN2CCN(CC2)C(c3ccccc3)c4ccccc4,N1(CCN(CC1)C/C=C/C2=CC=CC=C2)C(C3=CC=CC=C3)C=4C=CC=CC4,-3.4457
DETDTXMFCWHEMX-UHFFFAOYSA-N,,COc1cc2c(Nc3cccc(Cl)c3)ncnc2cc1OCCCN1CCCC1,COc1cc2c(cc1OCCCN3CCCC3)ncnc2Nc4cccc(c4)Cl,COC=1C=C2C(=NC=NC2=CC1OCCCN3CCCC3)NC=4C=CC=C(C4)Cl,-5.1838676
DETHMLJGORXQMH-UHFFFAOYSA-N,,NC(=O)Nc1sc(-c2ccc(OCC(F)F)nc2)cc1C(N)=O,c1cc(ncc1c2cc(c(s2)NC(=O)N)C(=O)N)OCC(F)F,NC(=O)NC=1SC(=CC1C(=O)N)C=2C=CC(=NC2)OCC(F)F,-5.3372421999999995
DETLTZYXZWIXIB-UHFFFAOYSA-N,"2,2-dimethyl-1,3-dihydroperimidine",CC1(C)Nc2cccc3cccc(c23)N1,CC1(Nc2cccc3c2c(ccc3)N1)C,CC1(NC=2C=CC=C3C2C(=CC=C3)N1)C,-2.929949448
DEVQNLSPZIXXDT-UHFFFAOYSA-N,,CC(Cn1cncn1)C(=O)Nc1ccc2c(c1)-c1ccccc1S2(=O)=O,CC(Cn1cncn1)C(=O)Nc2ccc3c(c2)-c4ccccc4S3(=O)=O,CC(CN1C=NC=N1)C(=O)NC=2C=CC3=C(C2)C=4C=CC=CC4S3(=O)=O,-4.537602
DEXMFYZAHXMZNM-UHFFFAOYSA-N,NARCEINE,COc1ccc(C(=O)Cc2c(CCN(C)C)cc3c(c2OC)OCO3)c(C(=O)O)c1OC,CN(C)CCc1cc2c(c(c1CC(=O)c3ccc(c(c3C(=O)O)OC)OC)OC)OCO2,COC=1C=CC(=C(C1OC)C(=O)O)C(=O)CC=2C(=CC3=C(C2OC)OCO3)CCN(C)C,-2.535
DEXSTSSPGXRLRY-UHFFFAOYSA-N,"5,5-dimethyl-2-phenyl-3H-imidazol-4-one",CC1(C)N=C(c2ccccc2)NC1=O,CC1(C(=O)NC(=N1)c2ccccc2)C,CC1(N=C(NC1=O)C2=CC=CC=C2)C,-0.8495
DFAHLBNDDQIMQH-UHFFFAOYSA-N,,CN(C)CCn1nc(-c2ccc(Cl)cc2)c2c1-c1ccccc1CC2,CN(C)CCn1c-2c(c(n1)c3ccc(cc3)Cl)CCc4c2cccc4,CN(C)CCN1N=C(C2=C1C=3C(=CC=CC3)CC2)C=4C=CC(=CC4)Cl,-5.3422758
DFCAFRGABIXSDS-UHFFFAOYSA-N,Cycloate,CCSC(=O)N(CC)C1CCCCC1,CCN(C1CCCCC1)C(=O)SCC,S(C(=O)N(CC)C1CCCCC1)CC,-3.4
DFDWGIZZMBNYBV-UHFFFAOYSA-N,"[2-methyl-2-(2-methylpropyl)-1,3-dioxolan-4-yl]methanol",CC(C)CC1(C)OCC(CO)O1,CC(C)CC1(OCC(O1)CO)C,CC(C)CC1(OCC(O1)CO)C,-0.7059901890000001
DFDZIMWEKUXHMN-UHFFFAOYSA-N,,Cc1nc([N+](=O)[O-])c(Br)n1CCC#N,Cc1nc(c(n1CCC#N)Br)[N+](=O)[O-],CC1=NC(=C(N1CCC#N)Br)[N+](=O)[O-],-2.6197888
DFFPUVDMNIWTAL-UHFFFAOYSA-N,"1-[3-(AZIRIDIN-1-YL)-4,6-DINITROBENZOYL]PIPERIDINE",O=C(c1cc(N2CC2)c([N+](=O)[O-])cc1[N+](=O)[O-])N1CCCCC1,c1c(c(cc(c1N2CC2)[N+](=O)[O-])[N+](=O)[O-])C(=O)N3CCCCC3,O=[N+]([O-])C1=C(C=C(C(=C1)[N+](=O)[O-])C(=O)N2CCCCC2)N3CC3,-3.17
DFFWZNDCNBOKDI-UHFFFAOYSA-N,TRINEXAPAC,O=C1CC(C(=O)O)CC(=O)C1=C(O)C1CC1,C1CC1C(=C2C(=O)CC(CC2=O)C(=O)O)O,C1CC1C(=C2C(=O)CC(CC2=O)C(=O)O)O,-2.237
DFIJUECLIGVUKT-UHFFFAOYSA-N,,O=C(O)c1cc(/N=N/c2ccccc2[N+](=O)[O-])ccc1O,c1ccc(c(c1)/N=N/c2ccc(c(c2)C(=O)O)O)[N+](=O)[O-],C1(=C(C=CC=C1)[N+](=O)[O-])/N=N/C2=CC(=C(C=C2)O)C(=O)O,-2.01
DFMGMJBWBQNZNK-UHFFFAOYSA-N,"ethyl 3,5-dichloro-4-{[(hexadecyloxy)carbonyl]oxy}benzoate",CCCCCCCCCCCCCCCCOC(=O)Oc1c(Cl)cc(C(=O)OCC)cc1Cl,CCCCCCCCCCCCCCCCOC(=O)Oc1c(cc(cc1Cl)C(=O)OCC)Cl,CCCCCCCCCCCCCCCCOC(=O)OC=1C(=CC(=CC1Cl)C(=O)OCC)Cl,-7.133901895
DFMLPQZUEXBQJU-UHFFFAOYSA-N,,c1csc(-c2n[nH]c3c2Cc2ccccc2-3)c1,c1ccc-2c(c1)Cc3c2[nH]nc3c4cccs4,C1C=2C(=NNC2C3=C1C=CC=C3)C4=CC=CS4,-6.19382
DFNJBNWBONZOQL-UHFFFAOYSA-N,,COc1cc2ncnc(Nc3cccc(Cl)c3F)c2cc1OC1CCNCC1,COc1cc2c(cc1OC3CCNCC3)c(ncn2)Nc4cccc(c4F)Cl,COC=1C=C2N=CN=C(C2=CC1OC3CCNCC3)NC=4C=CC=C(C4F)Cl,-3.186419
DFPMSGMNTNDNHN-UHFFFAOYSA-N,"7-{[(2S,3R,4S,5S,6R)-4,5-dihydroxy-6-(hydroxymethyl)-3-{[(2S,3R,4R,5R,6S)-3,4,5-trihydroxy-6-methyloxan-2-yl]oxy}oxan-2-yl]oxy}-5-hydroxy-2-(4-hydroxyphenyl)-3,4-dihydro-2H-1-benzopyran-4-one",C[C@@H]1O[C@@H](O[C@H]2[C@H](Oc3cc(O)c4c(c3)O[C@H](c3ccc(O)cc3)CC4=O)O[C@H](CO)[C@@H](O)[C@@H]2O)[C@H](O)[C@H](O)[C@H]1O,C[C@H]1[C@@H]([C@H]([C@H]([C@@H](O1)O[C@@H]2[C@H]([C@@H]([C@H](O[C@H]2Oc3cc(c4c(c3)O[C@@H](CC4=O)c5ccc(cc5)O)O)CO)O)O)O)O)O,C[C@@H]1O[C@H]([C@@H]([C@@H]([C@H]1O)O)O)O[C@@H]2[C@H]([C@@H]([C@H](O[C@H]2OC=3C=C(C4=C(C3)O[C@@H](CC4=O)C=5C=CC(=CC5)O)O)CO)O)O,-2.722438715
DFPWSUGKJILANW-UHFFFAOYSA-N,,O=C(c1ccc(-n2ccnc2)cc1)N1CCN(S(=O)(=O)c2ccc3cc(Cl)ccc3c2)CC1,c1cc(ccc1C(=O)N2CCN(CC2)S(=O)(=O)c3ccc4cc(ccc4c3)Cl)n5ccnc5,ClC=1C=CC=2C=C(C=CC2C1)S(=O)(=O)N3CCN(CC3)C(=O)C=4C=CC(=CC4)N5C=CN=C5,-6.09691
DFTMMVSDKIXUIX-UHFFFAOYSA-N,"3,4-Hexanedione, dioxime",CCC(=N\O)/C(CC)=N/O,CC/C(=N\O)/C(=N/O)/CC,O/N=C(/C(=N/O)/CC)\CC,-2.552
DFTOOBKXSNAAPW-UHFFFAOYSA-N,N-(2-hydroxyoxolan-3-yl)-4-methyl-2-(phenylcarbamothioylamino)pentanamide,CC(C)CC(NC(=S)Nc1ccccc1)C(=O)NC1CCOC1O,CC(C)CC(C(=O)NC1CCOC1O)NC(=S)Nc2ccccc2,CC(C)CC(NC(=S)NC1=CC=CC=C1)C(=O)NC2CCOC2O,-2.37
DFUPJBUACIGQRN-UHFFFAOYSA-N,,C=CCN(C)c1nc(Nc2ccc(S(=O)(=O)NCC3CCCO3)cc2)ncc1C#N,CN(CC=C)c1c(cnc(n1)Nc2ccc(cc2)S(=O)(=O)NCC3CCCO3)C#N,CN(CC=C)C=1N=C(N=CC1C#N)NC=2C=CC(=CC2)S(=O)(=O)NCC3CCCO3,-5.8860566
DFVPPGZSXADRCW-UHFFFAOYSA-N,"O,O-bis(2-methylphenyl) hydrogen dithiophosphate",Cc1ccccc1OP(=S)(S)Oc1ccccc1C,Cc1ccccc1OP(=S)(Oc2ccccc2C)S,CC=1C=CC=CC1OP(=S)(S)OC=2C=CC=CC2C,-1.0607649829999999
DFWFIQKMSFGDCQ-UHFFFAOYSA-N,Desethylatrazine,CC(C)Nc1nc(N)nc(Cl)n1,CC(C)Nc1nc(nc(n1)Cl)N,CC(C)NC=1N=C(N=C(N1)Cl)N,-2.238
DFWQXANLGSXMKF-UHFFFAOYSA-N,ethyl [(4-methylphenyl)sulfonyl]carbamate,CCOC(=O)NS(=O)(=O)c1ccc(C)cc1,CCOC(=O)NS(=O)(=O)c1ccc(cc1)C,CCOC(=O)NS(=O)(=O)C=1C=CC(=CC1)C,-2.243049374
DFXQXFGFOLXAPO-UHFFFAOYSA-N,4-Chloro-3-nitrobenzoic acid,O=C(O)c1ccc(Cl)c([N+](=O)[O-])c1,c1cc(c(cc1C(=O)O)[N+](=O)[O-])Cl,OC(=O)C1=CC=C(C(=C1)[N+](=O)[O-])Cl,-2.629075
DFYRUELUNQRZTB-UHFFFAOYSA-N,"Ethanone, 1-(4-hydroxy-3-methoxyphenyl)-",COc1cc(C(C)=O)ccc1O,CC(=O)c1ccc(c(c1)OC)O,COC=1C=C(C=CC1O)C(=O)C,-1.5218
DGABKXLVXPYZII-UHFFFAOYSA-N,Murocholic acid,CC(CCC(=O)O)C1CCC2C3CC(O)C4CC(O)CCC4(C)C3CCC12C,CC(CCC(=O)O)C1CCC2C1(CCC3C2CC(C4C3(CCC(C4)O)C)O)C,CC(CCC(=O)O)C1CCC2C1(CCC3C2CC(C4C3(CCC(C4)O)C)O)C,-4.32
DGBIGWXXNGSACT-UHFFFAOYSA-N,Clonazepam,O=C1CN=C(c2ccccc2Cl)c2cc([N+](=O)[O-])ccc2N1,c1ccc(c(c1)C2=NCC(=O)Nc3c2cc(cc3)[N+](=O)[O-])Cl,O=[N+]([O-])C=1C=CC2=C(C1)C(=NCC(=O)N2)C=3C=CC=CC3Cl,-3.49965
DGBWPZSGHAXYGK-UHFFFAOYSA-N,C.I. Pigment Orange 43,O=c1c2ccc3c4c(ccc(c24)c2nc4ccccc4n12)c(=O)n1c2ccccc2nc31,c1ccc2c(c1)nc3n2c(=O)c4ccc5c6c4c3ccc6c(=O)n7c5nc8c7cccc8,O=C1N2C=3C=CC=CC3N=C2C=4C=CC=5C(=O)N6C=7C=CC=CC7N=C6C=8C5C4C1=CC8,-7.757997293
DGEMPTLPTFNEHJ-UHFFFAOYSA-N,2-Methyl-5-ethylheptane,CCC(CC)CCC(C)C,CCC(CC)CCC(C)C,CCC(CC)CCC(C)C,-6.187
DGEZNRSVGBDHLK-UHFFFAOYSA-N,phenantroline,c1cnc2c(c1)ccc1cccnc12,c1cc2ccc3cccnc3c2nc1,C=1C=NC=2C(C1)=CC=C3C2N=CC=C3,-1.8259999999999998
DGKXDLCVQSQVBC-UHFFFAOYSA-N,"3,5,5-Trimethylhexyl acetate",CC(=O)OCCC(C)CC(C)(C)C,CC(CCOC(=O)C)CC(C)(C)C,CC(CCOC(=O)C)CC(C)(C)C,-3.9890839160000002
DGLCLKPBVKAYDZ-UHFFFAOYSA-N,,CC(C)Cc1nn(C)c(=O)c2cn(Cc3cccc4ccccc34)cc12,CC(C)Cc1c2cn(cc2c(=O)n(n1)C)Cc3cccc4c3cccc4,C=1C=C2C=CC=C(C2=CC1)CN3C=C4C(=O)N(N=C(C4=C3)CC(C)C)C,-5.5213468
DGLIBALSRMUQDD-UHFFFAOYSA-N,Demeton-O,CCOP(=S)(OCC)OCCSCC,CCOP(=S)(OCC)OCCSCC,P(=S)(OCCSCC)(OCC)OCC,-3.634
DGLSYQHHAPLUOV-UHFFFAOYSA-N,,COc1ccc(CC2CCn3cc(nn3)COCC(Cc3ccccc3)NC2=O)cc1,COc1ccc(cc1)CC2CCn3cc(nn3)COCC(NC2=O)Cc4ccccc4,COC1=CC=C(C=C1)CC2CCN3C=C(N=N3)COCC(NC2=O)CC4=CC=CC=C4,-4.159
DGMNNWVSIPJDRB-UHFFFAOYSA-N,,COCCN1CCC(COc2cc3ncnc(Nc4ccc(F)c(Cl)c4)c3cc2OC)CC1,COCCN1CCC(CC1)COc2cc3c(cc2OC)c(ncn3)Nc4ccc(c(c4)Cl)F,COCCN1CCC(CC1)COC=2C=C3N=CN=C(C3=CC2OC)NC=4C=CC(=C(C4)Cl)F,-2.9586072999999997
DGPBHERUGBOSFZ-UHFFFAOYSA-N,prynachlor; propynachlor;  2-chloro-n-(1-methyl-2-propynyl)acetanilide,C#CC(C)N(C(=O)CCl)c1ccccc1,CC(C#C)N(c1ccccc1)C(=O)CCl,N(C=1C=CC=CC1)(C(C#C)C)C(=O)CCl,-2.647
DGQLVPJVXFOQEV-UHFFFAOYSA-N,CARMINIC ACID,Cc1c(C(=O)O)c(O)cc2c1C(=O)c1c(O)c([C@H]3O[C@H](CO)[C@@H](O)[C@H](O)[C@H]3O)c(O)c(O)c1C2=O,Cc1c2c(cc(c1C(=O)O)O)C(=O)c3c(c(c(c(c3O)O)[C@@H]4[C@@H]([C@H]([C@@H]([C@H](O4)CO)O)O)O)O)C2=O,OC1C(C(C(OC1CO)C2=C(C3=C(C(=C2O)O)C(=O)C=4C(=C(C(=C(C4)O)C(=O)O)C)C3=O)O)O)O,-2.5782
DGQMZPCQFDTOQU-UHFFFAOYSA-N,,Cc1ccc(NC(=O)c2cc(F)cc(N3CCOCC3)c2)cc1C(=O)Nc1ccc(NCC(C)(C)CN(C)C)nc1,Cc1ccc(cc1C(=O)Nc2ccc(nc2)NCC(C)(C)CN(C)C)NC(=O)c3cc(cc(c3)F)N4CCOCC4,CN(C)CC(C)(C)CNC=1C=CC(=CN1)NC(=O)C=2C=C(C=CC2C)NC(=O)C=3C=C(C=C(C3)N4CCOCC4)F,-5.2757241
DGSUIELDSLHZFO-UHFFFAOYSA-N,,CNC(=O)c1c[nH]c(COc2ccccc2Oc2ccc(Nc3c(C#N)cnc4cc(OC)c(OC)cc34)cc2)n1,CNC(=O)c1c[nH]c(n1)COc2ccccc2Oc3ccc(cc3)Nc4c5cc(c(cc5ncc4C#N)OC)OC,CNC(=O)C1=CNC(=N1)COC=2C=CC=CC2OC=3C=CC(=CC3)NC=4C(=CN=C5C4C=C(C(=C5)OC)OC)C#N,-4.69897
DGSZGZSCHSQXFV-UHFFFAOYSA-N,"1,3-bis[(2-ethylhexanoyl)oxy]propan-2-yl 2-ethylhexanoate",CCCCC(CC)C(=O)OCC(COC(=O)C(CC)CCCC)OC(=O)C(CC)CCCC,CCCCC(CC)C(=O)OCC(COC(=O)C(CC)CCCC)OC(=O)C(CC)CCCC,CCCCC(CC)C(=O)OCC(COC(=O)C(CC)CCCC)OC(=O)C(CC)CCCC,-6.973882945
DGTCYQZOIKAZMK-UHFFFAOYSA-N,"ISOPROPYL  2,2-DIETHYLMALONURATE",CCC(CC)(C(=O)NC(N)=O)C(=O)OC(C)C,CCC(CC)(C(=O)NC(=O)N)C(=O)OC(C)C,CCC(CC)(C(=O)NC(=O)N)C(=O)OC(C)C,-2.77
DGUWTQAFRJFLHI-UHFFFAOYSA-N,,Fc1cc(C2=NOC(Cn3ccnn3)C2)ccc1N1CCSCC1,c1cc(c(cc1C2=NOC(C2)Cn3ccnn3)F)N4CCSCC4,FC=1C=C(C=CC1N2CCSCC2)C3=NOC(C3)CN4C=CN=N4,-4.8239087
DGUZPEZCWQVQGW-UHFFFAOYSA-N,"3-{2-[(3Z)-5-cyano-1,4-dimethyl-2,6-dioxo-1,2,3,6-tetrahydropyridin-3-ylidene]hydrazin-1-yl}phenyl benzenesulfonate",CC1=C(C#N)C(=O)N(C)C(=O)/C1=N\Nc1cccc(OS(=O)(=O)c2ccccc2)c1,CC\1=C(C(=O)N(C(=O)/C1=N\Nc2cccc(c2)OS(=O)(=O)c3ccccc3)C)C#N,CN1C(=O)/C(=N\NC=2C=CC=C(C2)OS(=O)(=O)C=3C=CC=CC3)/C(=C(C1=O)C#N)C,-8.78285811
DGWKYYRRBVRVQN-UHFFFAOYSA-N,,CCCC(CCC)CNC(=O)c1ccc2c(c1)c(Cc1ccc(C(=O)NS(=O)(=O)c3ccccc3C)cc1OC)cn2C,CCCC(CCC)CNC(=O)c1ccc2c(c1)c(cn2C)Cc3ccc(cc3OC)C(=O)NS(=O)(=O)c4ccccc4C,CCCC(CCC)CNC(=O)C=1C=CC=2N(C=C(C2C1)CC=3C=CC(=CC3OC)C(=O)NS(=O)(=O)C=4C=CC=CC4C)C,-6.0604807
DHEHEJGXTUCSQF-UHFFFAOYSA-N,"oxiran-2-ylmethyl 2,2-dimethyloctanoate",CCC(C)(CCC(C)C)C(=O)OCC1CO1,CCC(C)(CCC(C)C)C(=O)OCC1CO1,CCC(C)(CCC(C)C)C(=O)OCC1CO1,-3.5132343710000002
DHHVAGZRUROJKS-UHFFFAOYSA-N,phentermine hydrochloride,CC(C)(N)Cc1ccccc1,CC(C)(Cc1ccccc1)N,CC(C)(CC1=CC=CC=C1)N,-1.967758521
DHIFEVBBJSAIAC-UHFFFAOYSA-N,"2,5-BIS(ACETOXYMETHYL)ALLOPURINOL",CC(=O)OCn1cc2c(=O)n(COC(C)=O)cnc2n1,CC(=O)OCn1cc2c(n1)ncn(c2=O)COC(=O)C,CC(=O)OCN1C=C2C(=O)N(C=NC2=N1)COC(=O)C,-1.99
DHIZSZDTRMCQGS-UHFFFAOYSA-N,,CCCCN1CCC(Oc2cccc(C(=O)Nc3cc(NC(=O)c4ccnc(N5CCCC5)c4)ccc3C)c2)CC1,CCCCN1CCC(CC1)Oc2cccc(c2)C(=O)Nc3cc(ccc3C)NC(=O)c4ccnc(c4)N5CCCC5,CCCCN1CCC(CC1)OC=2C=CC=C(C2)C(=O)NC=3C=C(C=CC3C)NC(=O)C=4C=CN=C(C4)N5CCCC5,-4.39794
DHJVLXVXNFUSMU-UHFFFAOYSA-N,"(2E,6E)-3,7-dimethylnona-2,6-dienenitrile",CC/C(C)=C/CC/C(C)=C/C#N,CC/C(=C/CC/C(=C/C#N)/C)/C,CC/C(=C/CC/C(=C/C#N)/C)/C,-3.589820571
DHLVZXZRIZBPKG-UHFFFAOYSA-N,"3,3',4,4'-Tetrachlorodiphenyl ether",Clc1ccc(Oc2ccc(Cl)c(Cl)c2)cc1Cl,c1cc(c(cc1Oc2ccc(c(c2)Cl)Cl)Cl)Cl,O(C1=CC=C(C(=C1)Cl)Cl)C2=CC=C(C(=C2)Cl)Cl,-6.98
DHMAFHCBZOQVNM-UHFFFAOYSA-N,,COc1cc2ncnc(Nc3ccc(C(=O)NC4CCCCC4)cc3)c2cc1OC,COc1cc2c(cc1OC)ncnc2Nc3ccc(cc3)C(=O)NC4CCCCC4,COC=1C=C2N=CN=C(C2=CC1OC)NC=3C=CC(=CC3)C(=O)NC4CCCCC4,-5.7447275
DHMRSMNEKFDABI-UHFFFAOYSA-N,,NC(=O)Nc1cccc(Br)c1,c1cc(cc(c1)Br)NC(=O)N,BrC=1C=C(C=CC1)NC(=O)N,-2.542
DHNAZJFKQHWVTC-UHFFFAOYSA-N,,COC1CN(C)C(=O)c2ccc(NS(=O)(=O)c3ccccc3F)cc2OCC(C)NCC1C,CC1CNC(COc2cc(ccc2C(=O)N(CC1OC)C)NS(=O)(=O)c3ccccc3F)C,COC1CN(C(=O)C2=CC=C(C=C2OCC(NCC1C)C)NS(=O)(=O)C3=CC=CC=C3F)C,-4.004
DHNUKOXBGQWASR-UHFFFAOYSA-N,,COc1cc2c(Nc3cnc(NC(=O)c4ccc(F)c(Cl)c4)nc3)ncnc2cc1OCC1CC1CO,COc1cc2c(cc1OCC3CC3CO)ncnc2Nc4cnc(nc4)NC(=O)c5ccc(c(c5)Cl)F,COC=1C=C2C(=NC=NC2=CC1OCC3CC3CO)NC=4C=NC(=NC4)NC(=O)C=5C=CC(=C(C5)Cl)F,-6.686132799999999
DHPRQBPJLMKORJ-UHFFFAOYSA-N,chlortetracycline,CN(C)C1C(=O)C(C(N)=O)=C(O)C2(O)C(=O)C3=C(O)c4c(O)ccc(Cl)c4C(C)(O)C3CC12,CC1(c2c(ccc(c2C(=C3C1CC4C(C(=O)C(=C(C4(C3=O)O)O)C(=O)N)N(C)C)O)O)Cl)O,ClC1=C2C(=C(C=C1)O)C(=C3C(C2(O)C)CC4C(C3=O)(C(=C(C(=O)C4N(C)C)C(=O)N)O)O)O,-2.88
DHRPDQLXZRVLMU-UHFFFAOYSA-N,,NC(=O)Nc1sc(-c2ccccc2OC2CCOC2)cc1C(N)=O,c1ccc(c(c1)c2cc(c(s2)NC(=O)N)C(=O)N)OC3CCOC3,NC(=O)NC=1SC(=CC1C(=O)N)C=2C=CC=CC2OC3CCOC3,-4.853252400000001
DHRRDDLXFFPRMV-UHFFFAOYSA-N,calcium bis(3-nitro-4-{[2-oxo-1-(phenylcarbamoyl)propyl]diazenyl}benzenesulfonate),CC(=O)C(/N=N/c1ccc(S(=O)(=O)O)cc1[N+](=O)[O-])C(=O)Nc1ccccc1,CC(=O)C(C(=O)Nc1ccccc1)/N=N/c2ccc(cc2[N+](=O)[O-])S(=O)(=O)O,CC(=O)C(/N=N/C=1C=CC(=CC1[N+](=O)[O-])S(=O)(=O)O)C(=O)NC=2C=CC=CC2,-4.674781061
DHSUYTOATWAVLW-UHFFFAOYSA-N,cilastatin,CC1(C)C[C@@H]1C(=O)N/C(=C\CCCCSC[C@H](N)C(=O)O)C(=O)O,CC1(C[C@@H]1C(=O)N/C(=C\CCCCSC[C@@H](C(=O)O)N)/C(=O)O)C,CC1(C[C@@H]1C(=O)N/C(=C\CCCCSC[C@@H](C(=O)O)N)/C(=O)O)C,-1.1564885759999999
DHTZKRIZYPAKLO-UHFFFAOYSA-N,Quinonamid,O=C(CC(Cl)Cl)NC1=C(Cl)C(=O)c2ccccc2C1=O,c1ccc2c(c1)C(=O)C(=C(C2=O)Cl)NC(=O)CC(Cl)Cl,ClC(Cl)CC(=O)NC1=C(C(=O)C=2C=CC=CC2C1=O)Cl,-5.03
DHULVJBBSKFMNO-UHFFFAOYSA-N,,CCCN1CCC(Oc2cccc(C(=O)Nc3cc(NC(=O)c4cccc5c4oc4ccccc45)ccc3C)c2)CC1,CCCN1CCC(CC1)Oc2cccc(c2)C(=O)Nc3cc(ccc3C)NC(=O)c4cccc5c4oc6c5cccc6,CCCN1CCC(CC1)OC=2C=CC=C(C2)C(=O)NC=3C=C(C=CC3C)NC(=O)C=4C=CC=C5C4OC6=C5C=CC=C6,-5.5850267
DHVLDKHFGIVEIP-UHFFFAOYSA-N,"1,2-Dibromo-2,4-dicyanobutane",N#CCCC(Br)(C#N)CBr,C(CC(CBr)(C#N)Br)C#N,C(#N)C(Br)(CCC#N)CBr,-2.311
DHWPVYYICMBTMP-UHFFFAOYSA-N,,COc1cc2c(Nc3cnc(CNc4cccc(F)c4)nc3)ncnc2cc1OCCCN1CCCCC1CO,COc1cc2c(cc1OCCCN3CCCCC3CO)ncnc2Nc4cnc(nc4)CNc5cccc(c5)F,COC=1C=C2C(=NC=NC2=CC1OCCCN3CCCCC3CO)NC=4C=NC(=NC4)CNC=5C=CC=C(C5)F,-4.0
DHWRNDJOGMTCPB-UHFFFAOYSA-N,Dimefuron,CN(C)C(=O)Nc1ccc(-n2nc(C(C)(C)C)oc2=O)c(Cl)c1,CC(C)(C)c1nn(c(=O)o1)c2ccc(cc2Cl)NC(=O)N(C)C,CN(C)C(=O)NC=1C=CC(=C(C1)Cl)N2N=C(OC2=O)C(C)(C)C,-4.328
DHXXQIAKAGIQQL-UHFFFAOYSA-N,,COc1cc2ncnc(NC3CC3c3ccccc3)c2cc1OCCCN1CCOCC1,COc1cc2c(cc1OCCCN3CCOCC3)c(ncn2)NC4CC4c5ccccc5,COC=1C=C2N=CN=C(C2=CC1OCCCN3CCOCC3)NC4CC4C=5C=CC=CC5,-4.4202164
DHYYELJEGFJJNG-UHFFFAOYSA-N,,COc1cc2ncnc(Nc3ccc(S(N)(=O)=O)cc3)c2cc1OC,COc1cc2c(cc1OC)ncnc2Nc3ccc(cc3)S(=O)(=O)N,COC=1C=C2N=CN=C(C2=CC1OC)NC=3C=CC(=CC3)S(=O)(=O)N,-4.853872
DHZBEENLJMYSHQ-UHFFFAOYSA-N,Cantharidin,C[C@]12C(=O)OC(=O)[C@@]1(C)[C@@H]1CC[C@H]2O1,C[C@@]12[C@H]3CC[C@@H]([C@@]1(C(=O)OC2=O)C)O3,C[C@@]12[C@H]3CC[C@H](O3)[C@@]1(C(=O)OC2=O)C,-3.8160000000000003
DHZKFHRKOKWCKA-UHFFFAOYSA-N,"(5E)-5-[(4-chlorophenyl)methylidene]-2,2-dimethylcyclopentan-1-one",CC1(C)CC/C(=C\c2ccc(Cl)cc2)C1=O,CC1(CC/C(=C\c2ccc(cc2)Cl)/C1=O)C,CC1(CC/C(=C\C=2C=CC(=CC2)Cl)/C1=O)C,-5.671795597000001
DHZNRUNAYBIDPZ-UHFFFAOYSA-N,strontium 4-[(5-chloro-4-methyl-2-sulphonatophenyl)azo]-3-hydroxy-2-naphthoate (1:1),Cc1c(Cl)cc(/N=N/c2c(O)c(C(=O)O)cc3ccccc23)cc1S(=O)(=O)O,Cc1c(cc(cc1Cl)/N=N/c2c3ccccc3cc(c2O)C(=O)O)S(=O)(=O)O,CC=1C(=CC(=CC1S(=O)(=O)O)/N=N/C=2C(=C(C=C3C2C=CC=C3)C(=O)O)O)Cl,-5.307
DHZWALZKPWZSMA-UHFFFAOYSA-N,tetradecyl octadec-9-enoate,CCCCCCCC/C=C\CCCCCCCC(=O)OCCCCCCCCCCCCCC,CCCCCCCCCCCCCCOC(=O)CCCCCCC/C=C\CCCCCCCC,CCCCCCCCCCCCCCOC(=O)CCCCCCC/C=C\CCCCCCCC,-6.98111293
DIBGTMXGHUALIU-UHFFFAOYSA-N,,COc1cc2ncnc(Nc3cccc(Cl)c3F)c2cc1OC1CCN(CC(N)=O)CC1,COc1cc2c(cc1OC3CCN(CC3)CC(=O)N)c(ncn2)Nc4cccc(c4F)Cl,COC=1C=C2N=CN=C(C2=CC1OC3CCN(CC3)CC(=O)N)NC=4C=CC=C(C4F)Cl,-5.7772835
DICRHEJCQXFJBY-UHFFFAOYSA-N,"fitios;  o,o-dimethyl s-[(n-ethyl)carbamoylmethyl]dithiophosphate",CCNC(=O)CSP(=S)(OC)OC,CCNC(=O)CSP(=S)(OC)OC,P(=S)(SCC(=O)NCC)(OC)OC,-1.4569999999999999
DIDQACCTGNOYBE-UHFFFAOYSA-N,,COc1cc2ncnc(Nc3cccc(Cl)c3F)c2cc1OCCN1CCN(S(C)(=O)=O)CC1,COc1cc2c(cc1OCCN3CCN(CC3)S(=O)(=O)C)c(ncn2)Nc4cccc(c4F)Cl,COC=1C=C2N=CN=C(C2=CC1OCCN3CCN(CC3)S(=O)(=O)C)NC=4C=CC=C(C4F)Cl,-5.7011469
DIHIYIQUNYXHKU-UHFFFAOYSA-N,,Cc1cc2n[nH]c(=O)n2c2cc(Cl)ccc12,Cc1cc2n[nH]c(=O)n2c3c1ccc(c3)Cl,CC1=CC2=NNC(=O)N2C3=C1C=CC(=C3)Cl,-5.6925040000000005
DIHKPWRAFNUESX-UHFFFAOYSA-N,"2H-1-Benzopyran-3-carboxamide, N,N-diethyl-2-oxo",CCN(CC)C(=O)c1cc2ccccc2oc1=O,CCN(CC)C(=O)c1cc2ccccc2oc1=O,C=1(C(=O)OC2=C(C1)C=CC=C2)C(=O)N(CC)CC,-1.52
DIHXDHOKPJLKIK-UHFFFAOYSA-N,,O=C(O)CCCOc1cc(NC(=O)Cc2ccc3nc(Nc4ccccc4)oc3c2)ccc1OCCCN1CCCC1,c1ccc(cc1)Nc2nc3ccc(cc3o2)CC(=O)Nc4ccc(c(c4)OCCCC(=O)O)OCCCN5CCCC5,OC(=O)CCCOC=1C=C(C=CC1OCCCN2CCCC2)NC(=O)CC=3C=CC=4N=C(OC4C3)NC=5C=CC=CC5,-3.9586072999999997
DIHYLNFJZYXPHB-UHFFFAOYSA-N,,COc1cc2ncnc(Nc3ccc4c(ccn4Cc4ccccc4)c3)c2cc1OC,COc1cc2c(cc1OC)ncnc2Nc3ccc4c(c3)ccn4Cc5ccccc5,COC=1C=C2N=CN=C(C2=CC1OC)NC=3C=CC=4N(C=CC4C3)CC=5C=CC=CC5,-6.251812
DIIFUCUPDHMNIV-UHFFFAOYSA-N,BENZ(A)ANTHRACENE-7-METHYL,Cc1c2ccccc2cc2c1ccc1ccccc12,Cc1c2ccccc2cc3c1ccc4c3cccc4,CC=1C=2C=CC=CC2C=C3C1C=CC4=C3C=CC=C4,-7.343
DIIJYNJFSHJSFY-UHFFFAOYSA-N,,COC1CCC2CCOc3c(C#N)cccc3C(=O)N(C)CC(c3ccccc3)CC(=O)N(C)CC1O2,CN1CC2C(CCC(O2)CCOc3c(cccc3C(=O)N(CC(CC1=O)c4ccccc4)C)C#N)OC,COC1CCC2CCOC3=C(C=CC=C3C(=O)N(CC(CC(=O)N(CC1O2)C)C4=CC=CC=C4)C)C#N,-4.0
DIINZYBIACNRPS-UHFFFAOYSA-N,,Cc1ccc(NC(=O)c2cccc3c2oc2ccccc23)cc1NC(=O)c1ccc(NCC(C)(C)CN)nc1,Cc1ccc(cc1NC(=O)c2ccc(nc2)NCC(C)(C)CN)NC(=O)c3cccc4c3oc5c4cccc5,CC=1C=CC(=CC1NC(=O)C=2C=CC(=NC2)NCC(C)(C)CN)NC(=O)C=3C=CC=C4C3OC5=C4C=CC=C5,-5.4202164
DIKSKEFFJYLNEQ-UHFFFAOYSA-N,,COc1cc2c(Oc3ccc(Cl)cc3Cl)ncnc2cc1OCC1CCN(C)CC1,CN1CCC(CC1)COc2cc3c(cc2OC)c(ncn3)Oc4ccc(cc4Cl)Cl,COC=1C=C2C(=NC=NC2=CC1OCC3CCN(CC3)C)OC=4C=CC(=CC4Cl)Cl,-4.4317983
DILMMEIPSYIEIT-UHFFFAOYSA-N,,COCCOCCOc1cc2ncnc(Oc3ccc(Br)cc3F)c2cc1OC,COCCOCCOc1cc2c(cc1OC)c(ncn2)Oc3ccc(cc3F)Br,COCCOCCOC=1C=C2N=CN=C(C2=CC1OC)OC=3C=CC(=CC3F)Br,-5.327902099999999
DIOQZVSQGTUSAI-UHFFFAOYSA-N,n-Decane,CCCCCCCCCC,CCCCCCCCCC,CCCCCCCCCC,-6.4371
DIOYAVUHUXAUPX-UHFFFAOYSA-N,sodium [methyl(oleoyl)amino]acetate,CCCCCCCC/C=C\CCCCCCCC(=O)N(C)CC(=O)O,CCCCCCCC/C=C\CCCCCCCC(=O)N(C)CC(=O)O,CCCCCCCC/C=C\CCCCCCCC(=O)N(C)CC(=O)O,-0.097521113
DIOZMSACJPTBST-UHFFFAOYSA-N,Cyclanilide,O=C(O)C1CC1C(=O)Nc1ccc(Cl)cc1Cl,c1cc(c(cc1Cl)Cl)NC(=O)C2CC2C(=O)O,OC(=O)C1CC1C(=O)NC=2C=CC(=CC2Cl)Cl,-3.86985
DIRFUJHNVNOBMY-UHFFFAOYSA-N,N-METHYL O-SEC-BUTYL PHENYL CARBAMATE,CCC(C)c1ccccc1OC(=O)NC,CCC(C)c1ccccc1OC(=O)NC,CCC(C)C=1C=CC=CC1OC(=O)NC,-2.53
DIVQKHQLANKJQO-UHFFFAOYSA-N,,COc1cc(CCN)ccc1O,COc1cc(ccc1O)CCN,C=1(C(=CC=C(C1)CCN)O)OC,0.6861
DIWRORZWFLOCLC-UHFFFAOYSA-N,Lorazepam,O=C1Nc2ccc(Cl)cc2C(c2ccccc2Cl)=NC1O,c1ccc(c(c1)C2=NC(C(=O)Nc3c2cc(cc3)Cl)O)Cl,OC1N=C(C=2C=C(C=CC2NC1=O)Cl)C=3C=CC=CC3Cl,-3.6028