inchikey,Name,SMILES_stand,SMILES,kekSmiles,logS
HDAKHMNQQJQBBK-UHFFFAOYSA-N,,CCCc1nc(-c2cccnc2)cn2c(CC(=O)NC(CC3CCCCC3)C(=O)C(F)(F)C(=O)NCCC(C)C)nnc12,CCCc1c2nnc(n2cc(n1)c3cccnc3)CC(=O)NC(CC4CCCCC4)C(=O)C(C(=O)NCCC(C)C)(F)F,CCCC1=NC(=CN2C1=NN=C2CC(=O)NC(CC3CCCCC3)C(=O)C(F)(F)C(=O)NCCC(C)C)C=4C=CC=NC4,-4.819750599999999
HDBQZGJWHMCXIL-UHFFFAOYSA-N,"2H-Purine-2-thione, 1,3-dihydro-",S=c1ncc2nc[nH]c2[nH]1,c1c2c([nH]cn2)[nH]c(=S)n1,S=C1NC=2N=CNC2C=N1,-2.58015
HDCICIWMRHHDMV-UHFFFAOYSA-N,"Phosphonothioic dihydrazide, P-phenyl-",NNP(=S)(NN)c1ccccc1,c1ccc(cc1)P(=S)(NN)NN,P(=S)(NN)(NN)C1=CC=CC=C1,-1.425
HDDSHPAODJUKPD-UHFFFAOYSA-N,,COC(=O)Nc1nc2cc(Sc3ccccc3)ccc2[nH]1,COC(=O)Nc1[nH]c2ccc(cc2n1)Sc3ccccc3,C12=C(NC(=N1)NC(=O)OC)C=CC(=C2)SC3=CC=CC=C3,-7.476
HDFFVHSMHLDSLO-UHFFFAOYSA-N,Potassium dibenzyl phosphate,O=P(O)(OCc1ccccc1)OCc1ccccc1,c1ccc(cc1)COP(=O)(O)OCc2ccccc2,OP(=O)(OCC=1C=CC=CC1)OCC=2C=CC=CC2,0.499877064
HDHQZCHIXUUSMK-UHFFFAOYSA-N,"2(1H)-Quinolinone, 4-hydroxy-",O=c1cc(O)c2ccccc2[nH]1,c1ccc2c(c1)c(cc(=O)[nH]2)O,N1C2=C(C(=CC1=O)O)C=CC=C2,-3.792
HDIHOAXFFROQHR-UHFFFAOYSA-N,(6-Aminohexyl)carbamic acid,NCCCCCCNC(=O)O,C(CCCNC(=O)O)CCN,NCCCCCCNC(=O)O,-0.095299403
HDNVGBDXMKLRNV-UHFFFAOYSA-N,,Cc1ncc(-c2ccnc(Nc3ccc(S(=O)(=O)NCc4cccnc4)cc3)n2)n1C,Cc1ncc(n1C)c2ccnc(n2)Nc3ccc(cc3)S(=O)(=O)NCc4cccnc4,CC1=NC=C(N1C)C=2C=CN=C(N2)NC=3C=CC(=CC3)S(=O)(=O)NCC=4C=CC=NC4,-6.091515
HDNVYHWHCVTDIV-UHFFFAOYSA-N,Amicetin,CC1OC(n2ccc(NC(=O)c3ccc(NC(=O)C(C)(N)CO)cc3)nc2=O)CCC1OC1OC(C)C(N(C)C)C(O)C1O,CC1C(CCC(O1)n2ccc(nc2=O)NC(=O)c3ccc(cc3)NC(=O)C(C)(CO)N)OC4C(C(C(C(O4)C)N(C)C)O)O,N1(C(=O)N=C(C=C1)NC(=O)C=2C=CC(=CC2)NC(=O)C(N)(CO)C)C3OC(C(CC3)OC4C(C(C(C(O4)C)N(C)C)O)O)C,-2.4902
HDOVUKNUBWVHOX-UHFFFAOYSA-N,valacyclovir,CC(C)[C@H](N)C(=O)OCCOCn1cnc2c(=O)[nH]c(N)nc21,CC(C)[C@@H](C(=O)OCCOCn1cnc2c1nc([nH]c2=O)N)N,CC(C)[C@@H](C(=O)OCCOCN1C=NC2=C1N=C(NC2=O)N)N,-0.27045126399999997
HDPPLGPPWWCTCN-UHFFFAOYSA-N,,COc1cc2c(Nc3cccc(Cl)c3)ncnc2cc1OCCCN1CCOCC1,COc1cc2c(cc1OCCCN3CCOCC3)ncnc2Nc4cccc(c4)Cl,COC=1C=C2C(=NC=NC2=CC1OCCCN3CCOCC3)NC=4C=CC=C(C4)Cl,-6.0
HDRFWQCTBUXJJI-UHFFFAOYSA-N,,Cc1cc(N2CCC(C(=O)N3CCN(S(=O)(=O)c4ccc(Br)cc4)CC3)CC2)ncn1,Cc1cc(ncn1)N2CCC(CC2)C(=O)N3CCN(CC3)S(=O)(=O)c4ccc(cc4)Br,CC=1C=C(N=CN1)N2CCC(CC2)C(=O)N3CCN(CC3)S(=O)(=O)C=4C=CC(=CC4)Br,-3.6234230000000003
HDSPAPVKTBDOOD-UHFFFAOYSA-N,N1-(5-BR-2-PYRIDYL)SULFANILAMIDE,Nc1ccc(S(=O)(=O)Nc2cc(Br)ccn2)cc1,c1cc(ccc1N)S(=O)(=O)Nc2cc(ccn2)Br,S(=O)(=O)(NC=1C=C(C=CN1)Br)C=2C=CC(=CC2)N,-3.9360000000000004
HDTOVHSIOMOWMQ-UHFFFAOYSA-N,,O=C(O)COc1ccc2c(c1)OCC1CN(c3ccc(Cl)cc3)N=C21,c1cc(ccc1N2CC3COc4cc(ccc4C3=N2)OCC(=O)O)Cl,OC(=O)COC=1C=CC2=C(C1)OCC3C2=NN(C3)C=4C=CC(=CC4)Cl,-6.139856099999999
HDUCOOAJNAITJA-UHFFFAOYSA-N,,CCCS(=O)(=O)NC(=O)c1cc2ccc(NCc3ccc(C(F)(F)F)cc3)cc2[nH]1,CCCS(=O)(=O)NC(=O)c1cc2ccc(cc2[nH]1)NCc3ccc(cc3)C(F)(F)F,CCCS(=O)(=O)NC(=O)C1=CC=2C=CC(=CC2N1)NCC=3C=CC(=CC3)C(F)(F)F,-2.8860566000000003
HDWIHXWEUNVBIY-UHFFFAOYSA-N,Bendroflumethiazide,NS(=O)(=O)c1cc2c(cc1C(F)(F)F)NC(Cc1ccccc1)NS2(=O)=O,c1ccc(cc1)CC2Nc3cc(c(cc3S(=O)(=O)N2)S(=O)(=O)N)C(F)(F)F,S1(=O)(=O)NC(NC2=C1C=C(C(=C2)C(F)(F)F)S(=O)(=O)N)CC3=CC=CC=C3,-3.59
HDWLUGYOLUHEMN-UHFFFAOYSA-N,,CCC(C)c1cc([N+](=O)[O-])cc([N+](=O)[O-])c1OC(=O)OC(C)C,CCC(C)c1cc(cc(c1OC(=O)OC(C)C)[N+](=O)[O-])[N+](=O)[O-],O=C(OC1=C(C=C(C=C1C(C)CC)[N+](=O)[O-])[N+](=O)[O-])OC(C)C,-4.915
HDZZVAMISRMYHH-UHFFFAOYSA-N,tubercidin,Nc1ncnc2c1ccn2C1OC(CO)C(O)C1O,c1cn(c2c1c(ncn2)N)C3C(C(C(O3)CO)O)O,O1C(C(C(C1CO)O)O)N2C3=NC=NC(=C3C=C2)N,-1.95
HEBGHQFBZYXHGQ-UHFFFAOYSA-N,,COc1cc2c(Nc3ccc(Oc4ccccc4OC)cc3)c(C#N)cnc2cc1NCCCN1CCCCC1,COc1ccccc1Oc2ccc(cc2)Nc3c4cc(c(cc4ncc3C#N)NCCCN5CCCCC5)OC,COC=1C=CC=CC1OC=2C=CC(=CC2)NC=3C(=CN=C4C3C=C(C(=C4)NCCCN5CCCCC5)OC)C#N,-3.7958800000000004
HEBKCHPVOIAQTA-UHFFFAOYSA-N,Xylitol,OCC(O)C(O)C(O)CO,C(C(C(C(CO)O)O)O)O,OCC(O)C(O)C(O)CO,0.625137245
HEBNOQTYPPMNEA-UHFFFAOYSA-N,,COc1cc2ncnc(Nc3ccc(F)c(Cl)c3)c2cc1OCC1CCCN1C,CN1CCCC1COc2cc3c(cc2OC)ncnc3Nc4ccc(c(c4)Cl)F,COC=1C=C2N=CN=C(C2=CC1OCC3CCCN3C)NC=4C=CC(=C(C4)Cl)F,-3.6777807
HECLRDQVFMWTQS-UHFFFAOYSA-N,"Phenol, 4-methyl-, reaction products with dicyclopentadiene and isobutylene",C1=CC2C3C=CC(C3)C2C1,C1C=CC2C1C3CC2C=C3,C1C=CC2C1C3CC2C=C3,-6.170927319
HECUXDCEWGBJGX-UHFFFAOYSA-N,,COc1cc2c(Nc3cnc(C(=O)NCc4ccccc4F)nc3)ncnc2cc1OCCCN1CCOCC1,COc1cc2c(cc1OCCCN3CCOCC3)ncnc2Nc4cnc(nc4)C(=O)NCc5ccccc5F,COC=1C=C2C(=NC=NC2=CC1OCCCN3CCOCC3)NC=4C=NC(=NC4)C(=O)NCC=5C=CC=CC5F,-6.30103
HEFNNWSXXWATRW-UHFFFAOYSA-N,Ibuprofen,CC(C)Cc1ccc(C(C)C(=O)O)cc1,CC(C)Cc1ccc(cc1)C(C)C(=O)O,O=C(O)C(C1=CC=C(C=C1)CC(C)C)C,-3.99
HEFOCUJBDCFYAR-UHFFFAOYSA-N,"BENZOIC ACID, 2-(ACETYLOXY)-, 2-(DIETHYLAMINO)-2",CCN(CC)C(=O)COC(=O)c1ccccc1OC(C)=O,CCN(CC)C(=O)COC(=O)c1ccccc1OC(=O)C,CCN(CC)C(=O)COC(=O)C1=CC=CC=C1OC(=O)C,-2.1095
HEJZJSIRBLOWPD-UHFFFAOYSA-N,didodecyl but-2-enedioate,CCCCCCCCCCCCOC(=O)/C=C/C(=O)OCCCCCCCCCCCC,CCCCCCCCCCCCOC(=O)/C=C/C(=O)OCCCCCCCCCCCC,CCCCCCCCCCCCOC(=O)/C=C/C(=O)OCCCCCCCCCCCC,-6.4798692110000005
HEKITXMQANSWTN-UHFFFAOYSA-N,,COC(C)(c1cccc(OCc2nc3ccccc3n2C)c1)c1nccs1,CC(c1cccc(c1)OCc2nc3ccccc3n2C)(c4nccs4)OC,COC(C)(C1=NC=CS1)C=2C=CC=C(C2)OCC3=NC=4C=CC=CC4N3C,-5.0655015
HEMINMLPKZELPP-UHFFFAOYSA-N,Phosdiphen,CCOP(=O)(Oc1ccc(Cl)cc1Cl)Oc1ccc(Cl)cc1Cl,CCOP(=O)(Oc1ccc(cc1Cl)Cl)Oc2ccc(cc2Cl)Cl,P(=O)(OC1=C(C=C(C=C1)Cl)Cl)(OC2=C(C=C(C=C2)Cl)Cl)OCC,-5.774
HEMJJKBWTPKOJG-UHFFFAOYSA-N,gemfibrozil,Cc1ccc(C)c(OCCCC(C)(C)C(=O)O)c1,Cc1ccc(c(c1)OCCCC(C)(C)C(=O)O)C,CC1=CC(=C(C=C1)C)OCCCC(C)(C)C(=O)O,-4.119759298
HEMZHDQAEGQECA-UHFFFAOYSA-N,,O=C(O)c1ccc(NC(=O)c2cc(OCc3ccccc3)cc(OC3CCCC3)c2)nc1,c1ccc(cc1)COc2cc(cc(c2)OC3CCCC3)C(=O)Nc4ccc(cn4)C(=O)O,OC(=O)C=1C=CC(=NC1)NC(=O)C=2C=C(C=C(C2)OC3CCCC3)OCC=4C=CC=CC4,-5.366531500000001
HENWRPUIWHIGIA-UHFFFAOYSA-N,,CN1CCN(CCCOc2cccc(Nc3ncc(Br)c(Nc4ccccc4)n3)c2)CC1,CN1CCN(CC1)CCCOc2cccc(c2)Nc3ncc(c(n3)Nc4ccccc4)Br,CN1CCN(CC1)CCCOC=2C=CC=C(C2)NC=3N=CC(=C(N3)NC=4C=CC=CC4)Br,-2.6777807
HENZOLWOIZODCT-UHFFFAOYSA-N,Coumachlor,CC(=O)CC(c1ccc(Cl)cc1)c1c(O)oc2ccccc2c1=O,CC(=O)CC(c1ccc(cc1)Cl)c2c(=O)c3ccccc3oc2O,CC(=O)CC(C=1C=CC(=CC1)Cl)C2=C(OC=3C=CC=CC3C2=O)O,-5.836
HERTVNKDSUIUDK-UHFFFAOYSA-N,"3-hydroxy-N-(2-methylphenyl)-4-[(E)-2-(2,4,5-trichlorophenyl)diazen-1-yl]naphthalene-2-carboxamide",Cc1ccccc1NC(=O)C1=Cc2ccccc2/C(=N\Nc2cc(Cl)c(Cl)cc2Cl)C1=O,Cc1ccccc1NC(=O)C2=Cc3ccccc3/C(=N\Nc4cc(c(cc4Cl)Cl)Cl)/C2=O,CC=1C=CC=CC1NC(=O)C2=CC=3C=CC=CC3/C(=N\NC=4C=C(C(=CC4Cl)Cl)Cl)/C2=O,-7.69415483
HERZIRSHNUDONE-UHFFFAOYSA-N,"BENZ[a]ANTHRACENE, 9-FLUORO-7-METHYL-",Cc1c2cc(F)ccc2cc2c1ccc1ccccc12,Cc1c2ccc3ccccc3c2cc4c1cc(cc4)F,C=12C(=C(C=3C(C1)=CC=C(C3)F)C)C=CC=4C2=CC=CC4,-7.44
HEWDOWUUTBCVJP-UHFFFAOYSA-N,"1,6-Naphthalenedisulfonic acid",O=S(=O)(O)c1ccc2c(S(=O)(=O)O)cccc2c1,c1cc2cc(ccc2c(c1)S(=O)(=O)O)S(=O)(=O)O,OS(=O)(=O)C=1C=CC=2C(C1)=CC=CC2S(=O)(=O)O,0.5401
HEZNVIYQEUHLNI-UHFFFAOYSA-N,ethiofencarb;  2-[(ethylthio)methyl]phenyl  (n-methyl)carbamate,CCSCc1ccccc1OC(=O)NC,CCSCc1ccccc1OC(=O)NC,S(CC)CC=1C(=CC=CC1)OC(=O)NC,-2.09
HFACYLZERDEVSX-UHFFFAOYSA-N,"p,p'-Biphenyldiamine ",Nc1ccc(-c2ccc(N)cc2)cc1,c1cc(ccc1c2ccc(cc2)N)N,NC=1C=CC(=CC1)C=2C=CC(=CC2)N,-2.7
HFBHOAHFRNLZGN-UHFFFAOYSA-N,"DL-Leucine, N-formyl-",CC(C)CC(NC=O)C(=O)O,CC(C)CC(C(=O)O)NC=O,CC(C)CC(NC=O)C(=O)O,-0.7328
HFBWPRKWDIRYNX-UHFFFAOYSA-N,"trietazine;  2-chloro-4-diethylamino-6-ethylamino-1,3,5-triazine",CCNc1nc(Cl)nc(N(CC)CC)n1,CCNc1nc(nc(n1)Cl)N(CC)CC,N1=C(N=C(N=C1Cl)N(CC)CC)NCC,-4.06
HFCLVRUIEMYMSM-UHFFFAOYSA-N,,FC(F)(F)c1nc2ccccc2c2nnc(-c3ccc(Cl)cc3)n12,c1ccc2c(c1)c3nnc(n3c(n2)C(F)(F)F)c4ccc(cc4)Cl,FC(F)(F)C1=NC=2C(C=3N1C(=NN3)C=4C=CC(=CC4)Cl)=CC=CC2,-5.3329556
HFCYZXMHUIHAQI-UHFFFAOYSA-N,"thidiazuron; 1-(1,2,3-thiadiazol-5-yl)-3-phenylurea",O=C(Nc1ccccc1)Nc1cnns1,c1ccc(cc1)NC(=O)Nc2cnns2,O=C(NC=1SN=NC1)NC=2C=CC=CC2,-4.0419
HFEASCCDHUVYKU-UHFFFAOYSA-N,"benzene, 1,2-dichloro-3-methoxy-",COc1cccc(Cl)c1Cl,COc1cccc(c1Cl)Cl,COC=1C=CC=C(C1Cl)Cl,-3.31
HFEJHAAIJZXXRE-UHFFFAOYSA-N,Cafenstrole,CCN(CC)C(=O)n1cnc(S(=O)(=O)c2c(C)cc(C)cc2C)n1,CCN(CC)C(=O)n1cnc(n1)S(=O)(=O)c2c(cc(cc2C)C)C,CCN(CC)C(=O)N1C=NC(=N1)S(=O)(=O)C=2C(=CC(=CC2C)C)C,-5.14685
HFHZKZSRXITVMK-UHFFFAOYSA-N,oxyphenbutazone,CCCCC1C(=O)N(c2ccccc2)N(c2ccc(O)cc2)C1=O,CCCCC1C(=O)N(N(C1=O)c2ccc(cc2)O)c3ccccc3,O=C1N(N(C(=O)C1CCCC)C=2C=CC=CC2)C=3C=CC(=CC3)O,-3.73
HFIIQXBYXBKNNZ-UHFFFAOYSA-N,"5-Pyrimidineacetic acid, 4-amino-1,2-dihydro-2-o",Nc1[nH]c(=O)ncc1CC(=O)O,c1c(c([nH]c(=O)n1)N)CC(=O)O,O=C1NC(=C(C=N1)CC(=O)O)N,-1.7009999999999998
HFJDLTBKKVWCIA-UHFFFAOYSA-N,,CNCCCn1c2nc(=O)[nH]c(=O)c-2nc2cc(Cl)c(Cl)cc21,CNCCCn1c2cc(c(cc2nc-3c(=O)[nH]c(=O)nc13)Cl)Cl,CNCCCN1C=2C=C(C(=CC2N=C3C(=O)NC(=O)N=C13)Cl)Cl,-2.6777807
HFJQQRBGUUCKSM-UHFFFAOYSA-N,,CCCn1c2ccccc2c2cc(NC(=O)CCc3ccncc3)ccc21,CCCn1c2ccccc2c3c1ccc(c3)NC(=O)CCc4ccncc4,CCCN1C=2C=CC=CC2C3=C1C=CC(=C3)NC(=O)CCC=4C=CN=CC4,-5.366531500000001
HFJRKMMYBMWEAD-UHFFFAOYSA-N,DODECANAL,CCCCCCCCCCCC=O,CCCCCCCCCCCC=O,CCCCCCCCCCCC=O,-5.061229774
HFLAZFSCYHSMQS-UHFFFAOYSA-N,"D-Glucose, 2-deoxy-2-[(ethoxycarbonyl)amino]-",CCOC(=O)N[C@@H](C=O)[C@@H](O)[C@H](O)[C@H](O)CO,CCOC(=O)N[C@@H](C=O)[C@H]([C@@H]([C@@H](CO)O)O)O,CCOC(=O)N[C@@H](C=O)[C@@H](O)[C@H](O)[C@H](O)CO,0.1139
HFLJOXHDBCRLQR-UHFFFAOYSA-N,"2-OXO-5-INDOLINYL ACETATE;  Acetic acid 2-oxo-2,3-dihydro-1H-indol-5-yl ester;  5-Acetoxy-2-oxo-2,3-dihydroindole",CC(=O)Oc1ccc2c(c1)CC(=O)N2,CC(=O)Oc1ccc2c(c1)CC(=O)N2,CC(=O)OC1=CC2=C(C=C1)NC(=O)C2,-1.54
HFMZPBSZKCDKOR-UHFFFAOYSA-N,,O=C1CCc2cccc(O)c21,c1cc2c(c(c1)O)C(=O)CC2,OC=1C=CC=C2C1C(=O)CC2,-2.3565473
HFNGYHHRRMSKEU-UHFFFAOYSA-N,ANISYL  ACETATE,COc1ccc(COC(C)=O)cc1,CC(=O)OCc1ccc(cc1)OC,COC=1C=CC(=CC1)COC(=O)C,-2.462337891
HFOFYNMWYRXIBP-UHFFFAOYSA-N,,CCCCCCCCCCC1OC1CCCCC(C)C,CCCCCCCCCCC1C(O1)CCCCC(C)C,O1C(C1CCCCC(C)C)CCCCCCCCCC,-8.172
HFPZCAJZSCWRBC-UHFFFAOYSA-N,p-Isopropyltoluene,Cc1ccc(C(C)C)cc1,Cc1ccc(cc1)C(C)C,CC1=CC=C(C=C1)C(C)C,-3.77
HFSBGVJICLMJRK-UHFFFAOYSA-N,ethoxycarbonylmetyl  acetylsalicylate;  2-(2-acetoxybenzoyloxy)acetic acid ethyl ester,CCOC(=O)COC(=O)c1ccccc1OC(C)=O,CCOC(=O)COC(=O)c1ccccc1OC(=O)C,CCOC(=O)COC(=O)C1=CC=CC=C1OC(=O)C,-2.58
HFVMLYAGWXSTQI-UHFFFAOYSA-N,5alpha-Androst-16-en-3-one;   5alpha-Androstenone,CC12C=CCC1C1CCC3CC(=O)CCC3(C)C1CC2,CC12CCC3C(C1CC=C2)CCC4C3(CCC(=O)C4)C,CC12CCC3C(C1CC=C2)CCC4C3(CCC(=O)C4)C,-6.07
HFVPPHLKEKRGHI-UHFFFAOYSA-N,4-ACETAMIDOPHENYL  PROPIONATE; Acetaminophen propionate; 4-Propanoyloxyacetanilide,CCC(=O)Oc1ccc(NC(C)=O)cc1,CCC(=O)Oc1ccc(cc1)NC(=O)C,CCC(=O)OC1=CC=C(C=C1)NC(=O)C,-2.72
HFZKOYWDLDYELC-UHFFFAOYSA-N,"1,2-Dimethyl-4-nitrobenzene",Cc1ccc([N+](=O)[O-])cc1C,Cc1ccc(cc1C)[N+](=O)[O-],CC=1C=CC(=CC1C)[N+](=O)[O-],-3.179225624
HGAMSPGIEZDGCN-UHFFFAOYSA-N,,O=C(Nc1ccc2c(c1)-c1ccccc1S2(=O)=O)N1CCCC1CN1CCCC1,c1ccc2c(c1)-c3cc(ccc3S2(=O)=O)NC(=O)N4CCCC4CN5CCCC5,O=C(NC=1C=CC2=C(C1)C=3C=CC=CC3S2(=O)=O)N4CCCC4CN5CCCC5,-4.2676062
HGBLNBBNRORJKI-UHFFFAOYSA-N,CYCLACILLIN;  WY-4508;   6-(1-Aminocyclohexanecarboxamido)penicillanic acid,CC1(C)SC2C(NC(=O)C3(N)CCCCC3)C(=O)N2C1C(=O)O,CC1(C(N2C(S1)C(C2=O)NC(=O)C3(CCCCC3)N)C(=O)O)C,CC1(SC2C(C(=O)N2C1C(=O)O)NC(=O)C3(CCCCC3)N)C,-1.04
HGDFMYGFWUSBQH-UHFFFAOYSA-N,4-[[2-methoxy-4-[(4-nitrophenyl)azo]phenyl]azo]phenol,COc1cc(/N=N/c2ccc([N+](=O)[O-])cc2)ccc1NN=C1C=CC(=O)C=C1,COc1cc(ccc1NN=C2C=CC(=O)C=C2)/N=N/c3ccc(cc3)[N+](=O)[O-],COC=1C=C(C=CC1NN=C2C=CC(=O)C=C2)/N=N/C=3C=CC(=CC3)[N+](=O)[O-],-6.963986004
HGDVHRITTGWMJK-UHFFFAOYSA-N,"2,6-Dimethylheptan-2-ol",CC(C)CCCC(C)(C)O,CC(C)CCCC(C)(C)O,CC(C)CCCC(C)(C)O,-2.286991817
HGFWMGARSDHJFP-UHFFFAOYSA-N,7-propyltheophylline,CCCn1cnc2c1c(=O)n(C)c(=O)n2C,CCCn1cnc2c1c(=O)n(c(=O)n2C)C,O=C1N(C(=O)C2=C(N1C)N=CN2CCC)C,0.0185
HGIOOMCLOWLFTJ-UHFFFAOYSA-N,2-MERCAPTO-3-PHENYLPROPIONIC  ACID;  2-MERCAPTO-3-PHENYLPROPanoic ACID,O=C(O)C(S)Cc1ccccc1,c1ccc(cc1)CC(C(=O)O)S,OC(=O)C(S)CC1=CC=CC=C1,-1.56
HGIOPWJVKFOFPO-UHFFFAOYSA-N,METHYL  3-PHENYLTHIOBUTYRATE,COC(=O)CC(C)Sc1ccccc1,CC(CC(=O)OC)Sc1ccccc1,COC(=O)CC(C)SC1=CC=CC=C1,-2.0
HGKAMARNFGKMLC-UHFFFAOYSA-N,DEXOXADROL,c1ccc(C2(c3ccccc3)OCC(C3CCCCN3)O2)cc1,c1ccc(cc1)C2(OCC(O2)C3CCCCN3)c4ccccc4,C1CCC(NC1)C2COC(O2)(C3=CC=CC=C3)C4=CC=CC=C4,-3.6639999999999997
HGKOWIQVWAQWDS-UHFFFAOYSA-N,"1,4-bis(16-methylheptadecyl) 2-hydroxybutanedioate",CC(C)CCCCCCCCCCCCCCCOC(=O)CC(O)C(=O)OCCCCCCCCCCCCCCCC(C)C,CC(C)CCCCCCCCCCCCCCCOC(=O)CC(C(=O)OCCCCCCCCCCCCCCCC(C)C)O,CC(C)CCCCCCCCCCCCCCCOC(=O)CC(O)C(=O)OCCCCCCCCCCCCCCCC(C)C,-7.9928137999999995
HGMRUMKGUBMLPL-UHFFFAOYSA-N,,Cc1ccc(NC(=O)c2cc(N3CCOCC3)cc(C(F)(F)F)c2)cc1NC(=O)c1cccc(CN(C)CCN(C)C)c1,Cc1ccc(cc1NC(=O)c2cccc(c2)CN(C)CCN(C)C)NC(=O)c3cc(cc(c3)N4CCOCC4)C(F)(F)F,CN(C)CCN(C)CC=1C=CC=C(C1)C(=O)NC=2C=C(C=CC2C)NC(=O)C=3C=C(C=C(C3)C(F)(F)F)N4CCOCC4,-3.9586072999999997
HGPIPBWZOFUSEC-UHFFFAOYSA-N,,COc1cc2c(/N=c3\sc(CC(=O)Nc4ccccc4)cn3CCCN3CCCC3)ncnc2cc1O,COc1cc2c(cc1O)ncnc2/N=c\3/n(cc(s3)CC(=O)Nc4ccccc4)CCCN5CCCC5,COC=1C=C2C(=NC=NC2=CC1O)/N=C/3\SC(=CN3CCCN4CCCC4)CC(=O)NC=5C=CC=CC5,-3.5686362000000003
HGTUJZTUQFXBIH-UHFFFAOYSA-N,"1,1'-(2,3-dimethylbutane-2,3-diyl)dibenzene",CC(C)(c1ccccc1)C(C)(C)c1ccccc1,CC(C)(c1ccccc1)C(C)(C)c2ccccc2,CC(C)(C=1C=CC=CC1)C(C)(C)C=2C=CC=CC2,-6.474084448999999
HGUDOLUVZFHAKF-UHFFFAOYSA-N,,CCN(CCO)CCCOc1cc2ncnc(Nc3cnc(NC(=O)c4ccc(F)c(Cl)c4)nc3)c2cc1OC,CCN(CCCOc1cc2c(cc1OC)c(ncn2)Nc3cnc(nc3)NC(=O)c4ccc(c(c4)Cl)F)CCO,CCN(CCO)CCCOC=1C=C2N=CN=C(C2=CC1OC)NC=3C=NC(=NC3)NC(=O)C=4C=CC(=C(C4)Cl)F,-2.853872
HGUFODBRKLSHSI-UHFFFAOYSA-N,TCDD,Clc1cc2c(cc1Cl)Oc1cc(Cl)c(Cl)cc1O2,c1c2c(cc(c1Cl)Cl)Oc3cc(c(cc3O2)Cl)Cl,ClC=1C=C2C(=CC1Cl)OC3=C(C=C(C(=C3)Cl)Cl)O2,-10.22
HGVDHZBSSITLCT-UHFFFAOYSA-N,edoxaban,CN1CCc2nc(C(=O)N[C@@H]3C[C@@H](C(=O)N(C)C)CC[C@@H]3NC(=O)C(=O)Nc3ccc(Cl)cn3)sc2C1,CN1CCc2c(sc(n2)C(=O)N[C@@H]3C[C@H](CC[C@@H]3NC(=O)C(=O)Nc4ccc(cn4)Cl)C(=O)N(C)C)C1,CN1CCC2=C(SC(=N2)C(=O)N[C@@H]3C[C@H](CC[C@@H]3NC(=O)C(=O)NC4=NC=C(C=C4)Cl)C(=O)N(C)C)C1,-3.766070022
HGVIAKXYAZRSEG-UHFFFAOYSA-N,"N-(2,4-Dimethylphenyl)-3-oxobutanamide",CC(=O)CC(=O)Nc1ccc(C)cc1C,Cc1ccc(c(c1)C)NC(=O)CC(=O)C,CC(=O)CC(=O)NC=1C=CC(=CC1C)C,-1.990039341
HGWMCRXWMXJBGN-UHFFFAOYSA-N,,O=C(NCCCN1CCOCC1)c1ccc(Nc2ncc(Cl)c(Nc3ccccc3)n2)cc1,c1ccc(cc1)Nc2c(cnc(n2)Nc3ccc(cc3)C(=O)NCCCN4CCOCC4)Cl,ClC=1C=NC(=NC1NC=2C=CC=CC2)NC=3C=CC(=CC3)C(=O)NCCCN4CCOCC4,-5.0
HGXMTUVARVPNNV-UHFFFAOYSA-N,,COc1cc2ncc(C#N)c(Nc3ccc(Oc4ccccc4OC(C)(C)C(=O)N4CCN(C)CC4)cc3)c2cc1OC,CC(C)(C(=O)N1CCN(CC1)C)Oc2ccccc2Oc3ccc(cc3)Nc4c5cc(c(cc5ncc4C#N)OC)OC,COC=1C=C2N=CC(=C(C2=CC1OC)NC=3C=CC(=CC3)OC=4C=CC=CC4OC(C)(C)C(=O)N5CCN(CC5)C)C#N,-5.920818799999999
HHAHHVBAIRBUJO-UHFFFAOYSA-N,,C#Cc1cccc(NS(=O)(=O)c2ccc(Cl)c(Cl)c2)c1,C#Cc1cccc(c1)NS(=O)(=O)c2ccc(c(c2)Cl)Cl,ClC=1C=CC(=CC1Cl)S(=O)(=O)NC=2C=CC=C(C2)C#C,-5.1857524
HHDDWTCUQVPOBP-UHFFFAOYSA-N,"6,7-diethylpteridin-4-amine",CCc1nc2ncnc(N)c2nc1CC,CCc1c(nc2c(n1)c(ncn2)N)CC,CCC1=NC2=NC=NC(=C2N=C1CC)N,-2.93
HHDJWYOCRHVJHS-UHFFFAOYSA-N,2-Ethyl-N-hydroxy-2-(4-methylbenzyl)butanamide,CCC(CC)(Cc1ccc(C)cc1)C(=O)NO,CCC(CC)(Cc1ccc(cc1)C)C(=O)NO,CCC(CC)(CC1=CC=C(C=C1)C)C(=O)NO,-3.3480000000000003
HHECSPXBQJHZAF-UHFFFAOYSA-N,DIHEXYL ADIPATE,CCCCCCOC(=O)CCCCC(=O)OCCCCCC,CCCCCCOC(=O)CCCCC(=O)OCCCCCC,CCCCCCOC(=O)CCCCC(=O)OCCCCCC,-5.082800175
HHEXVLXMZIVFSS-UHFFFAOYSA-N,4-amino-N-(2-ethylhexyl)benzene-1-sulfonamide,CCCCC(CC)CNS(=O)(=O)c1ccc(N)cc1,CCCCC(CC)CNS(=O)(=O)c1ccc(cc1)N,CCCCC(CC)CNS(=O)(=O)C=1C=CC(=CC1)N,-5.4539838839999994
HHFBWBKPIGMUBH-UHFFFAOYSA-N,,COc1c(CCCc2ccc3nc(Nc4ccccc4)oc3c2)cccc1OCCCC(=O)O,COc1c(cccc1OCCCC(=O)O)CCCc2ccc3c(c2)oc(n3)Nc4ccccc4,COC=1C(=CC=CC1OCCCC(=O)O)CCCC=2C=CC=3N=C(OC3C2)NC=4C=CC=CC4,-3.9208187999999993
HHHKFGXWKKUNCY-UHFFFAOYSA-N,cilazapril,CCOC(=O)[C@H](CCc1ccccc1)N[C@H]1CCCN2CCC[C@@H](C(=O)O)N2C1=O,CCOC(=O)[C@H](CCc1ccccc1)N[C@H]2CCCN3CCC[C@H](N3C2=O)C(=O)O,CCOC(=O)[C@H](CCC1=CC=CC=C1)N[C@H]2CCCN3CCC[C@H](N3C2=O)C(=O)O,-2.62065648
HHIKNUPAMVGRFX-UHFFFAOYSA-N,"5,5-di(ethenyl)-1,3-diazinane-2,4,6-trione",C=CC1(C=C)C(=O)NC(=O)NC1=O,C=CC1(C(=O)NC(=O)NC1=O)C=C,C=CC1(C(=O)NC(=O)NC1=O)C=C,-2.0615
HHJQYQCLQQYCOQ-UHFFFAOYSA-N,,COc1cc2c(Nc3cnc(NC(=O)CCC4CC4)nc3)ncnc2cc1OCCCN1CCOCC1,COc1cc2c(cc1OCCCN3CCOCC3)ncnc2Nc4cnc(nc4)NC(=O)CCC5CC5,COC=1C=C2C(=NC=NC2=CC1OCCCN3CCOCC3)NC=4C=NC(=NC4)NC(=O)CCC5CC5,-4.2924298
HHKPGQSPFVLKMV-UHFFFAOYSA-N,"Anthra[2,1,9-mna]naphtho[2,3-h]acridine-5,10,15(16H)-trione",O=C1c2ccccc2C(=O)c2c1ccc1c2[nH]c2ccc3c4ccccc4c(=O)c4ccc1c2c43,c1ccc2c(c1)c3ccc4c5c3c(c2=O)ccc5c6ccc7c(c6[nH]4)C(=O)c8ccccc8C7=O,O=C1C=2C=CC=CC2C(=O)C3=C1C=CC4=C3NC=5C=CC=6C=7C=CC=CC7C(=O)C=8C6C5C4=CC8,-5.506783922
HHLXJTDUHFBYAU-UHFFFAOYSA-N,probarbital;  5-ethyl-5-isopropylbarbituric  acid,CCC1(C(C)C)C(=O)NC(=O)NC1=O,CCC1(C(=O)NC(=O)NC1=O)C(C)C,O=C1NC(=O)NC(=O)C1(CC)C(C)C,-2.21
HHMCAJWVGYGUEF-UHFFFAOYSA-N,FLUORODIFEN,O=[N+]([O-])c1ccc(Oc2ccc(C(F)(F)F)cc2[N+](=O)[O-])cc1,c1cc(ccc1[N+](=O)[O-])Oc2ccc(cc2[N+](=O)[O-])C(F)(F)F,O=[N+]([O-])C=1C=CC(=CC1)OC=2C=CC(=CC2[N+](=O)[O-])C(F)(F)F,-5.22
HHMGSXBJVFFCGH-UHFFFAOYSA-N,N-[4-(Dimethylsulfamoyl)phenyl]-N-methylheptanoic acid amide,CCCCCCC(=O)N(C)c1ccc(S(=O)(=O)N(C)C)cc1,CCCCCCC(=O)N(C)c1ccc(cc1)S(=O)(=O)N(C)C,CCCCCCC(=O)N(C)C1=CC=C(C=C1)S(=O)(=O)N(C)C,-3.68
HHODLRBJFMBODF-UHFFFAOYSA-N,,N#Cc1ccccc1Nc1ccnc(Nc2ccc(S(N)(=O)=O)cc2)n1,c1ccc(c(c1)C#N)Nc2ccnc(n2)Nc3ccc(cc3)S(=O)(=O)N,NS(=O)(=O)C=1C=CC(=CC1)NC=2N=CC=C(N2)NC=3C=CC=CC3C#N,-5.5686362
HHRACYLRBOUBKM-UHFFFAOYSA-N,2-(4-tert-butylphenoxymethyl)oxirane,CC(C)(C)c1ccc(OCC2CO2)cc1,CC(C)(C)c1ccc(cc1)OCC2CO2,CC(C)(C)C=1C=CC(=CC1)OCC2CO2,-3.43011944
HHRGPZGSLGGHFD-UHFFFAOYSA-N,,CC(C)CC(NC(=O)N1CCCCC1)C(=O)NC(C#N)c1cccs1,CC(C)CC(C(=O)NC(C#N)c1cccs1)NC(=O)N2CCCCC2,CC(C)CC(NC(=O)N1CCCCC1)C(=O)NC(C#N)C2=CC=CS2,-3.6382722000000003
HHSKNLJWHGXWPK-UHFFFAOYSA-N,POPULIN,O=C(OC[C@H]1O[C@@H](Oc2ccccc2CO)[C@H](O)[C@@H](O)[C@@H]1O)c1ccccc1,c1ccc(cc1)C(=O)OC[C@@H]2[C@H]([C@@H]([C@H]([C@@H](O2)Oc3ccccc3CO)O)O)O,OCC=1C=CC=CC1O[C@@H]2O[C@@H]([C@H]([C@@H]([C@H]2O)O)O)COC(=O)C=3C=CC=CC3,-2.8930000000000002
HHSXYDOROIURIP-UHFFFAOYSA-N,TESTOSTERONE  PHENYLPROPIONATE,CC12CCC(=O)C=C1CCC1C2CCC2(C)C(OC(=O)CCc3ccccc3)CCC12,CC12CCC3C(C1CCC2OC(=O)CCc4ccccc4)CCC5=CC(=O)CCC35C,CC12CCC3C(C1CCC2OC(=O)CCC4=CC=CC=C4)CCC5=CC(=O)CCC35C,-5.27
HHTGWFOODNPFQU-UHFFFAOYSA-N,,COc1cc2nc(Cl)nc(Nc3ccc(F)c(NC(=O)c4ccccc4)c3)c2cc1OC,COc1cc2c(cc1OC)nc(nc2Nc3ccc(c(c3)NC(=O)c4ccccc4)F)Cl,COC=1C=C2N=C(N=C(C2=CC1OC)NC=3C=CC(=C(C3)NC(=O)C=4C=CC=CC4)F)Cl,-6.408935400000001
HHVMYUPMJJDVPG-UHFFFAOYSA-N,3-(2-Hydroxyethyl)-p-phenylenediammonium sulphate,CC(O)c1cc(N)ccc1N,CC(c1cc(ccc1N)N)O,CC(O)C=1C=C(C=CC1N)N,-0.685618395
HHZIURLSWUIHRB-UHFFFAOYSA-N,,Cc1cn(-c2cc(NC(=O)c3ccc(C)c(Nc4nccc(-c5cccnc5)n4)c3)cc(C(F)(F)F)c2)cn1,Cc1ccc(cc1Nc2nccc(n2)c3cccnc3)C(=O)Nc4cc(cc(c4)n5cc(nc5)C)C(F)(F)F,FC(F)(F)C=1C=C(C=C(C1)NC(=O)C2=CC(=C(C=C2)C)NC=3N=C(C=CN3)C=4C=CC=NC4)N5C=C(N=C5)C,0.7594
HICSOOSBMXXVDD-UHFFFAOYSA-N,,COc1cc2c(Nc3ncc(CC(=O)Nc4cccc(Cl)c4)s3)ncnc2cc1OCC1CCN(C)CC1,CN1CCC(CC1)COc2cc3c(cc2OC)c(ncn3)Nc4ncc(s4)CC(=O)Nc5cccc(c5)Cl,COC=1C=C2C(=NC=NC2=CC1OCC3CCN(CC3)C)NC4=NC=C(S4)CC(=O)NC=5C=CC=C(C5)Cl,-2.6777807
HIDAXOGGMZCOCG-UHFFFAOYSA-N,,CCn1c(-c2ccnc(Nc3ccc(S(=O)(=O)NCCCOC)cc3)n2)cnc1C,CCn1c(ncc1c2ccnc(n2)Nc3ccc(cc3)S(=O)(=O)NCCCOC)C,CCN1C(=NC=C1C=2C=CN=C(N2)NC=3C=CC(=CC3)S(=O)(=O)NCCCOC)C,-4.920818799999999
HIDBROSJWZYGSZ-UHFFFAOYSA-N,"1-phenyl-2,5-dihydro-1H-pyrrole-2,5-dione",O=C1C=CC(=O)N1c1ccccc1,c1ccc(cc1)N2C(=O)C=CC2=O,O=C1C=CC(=O)N1C=2C=CC=CC2,-2.3271587780000003
HIEWGCSRVINTBE-UHFFFAOYSA-N,,CCCCC(O)C(CC1CCCCC1)NC(=O)C(Cc1c[nH]cn1)NC(=O)C(CCc1ccccc1)NC(=O)OC(C)(C)C,CCCCC(C(CC1CCCCC1)NC(=O)C(Cc2c[nH]cn2)NC(=O)C(CCc3ccccc3)NC(=O)OC(C)(C)C)O,CCCCC(O)C(CC1CCCCC1)NC(=O)C(CC2=CNC=N2)NC(=O)C(CCC=3C=CC=CC3)NC(=O)OC(C)(C)C,-5.077274500000001
HIFJCPQKFCZDDL-UHFFFAOYSA-N,iloprost,CC#CCC(C)[C@H](O)/C=C/[C@@H]1[C@H]2C/C(=C/CCCC(=O)O)C[C@H]2C[C@H]1O,CC#CCC(C)[C@@H](/C=C/[C@H]1[C@@H](C[C@H]2[C@@H]1C/C(=C/CCCC(=O)O)/C2)O)O,CC#CCC(C)[C@@H](/C=C/[C@H]1[C@@H](C[C@H]2[C@@H]1C/C(=C/CCCC(=O)O)/C2)O)O,-2.556893222
HIFUNHJLYHILLV-UHFFFAOYSA-N,,CC(C)COc1cc(OCC(C)C)cc(C(=O)Nc2ccc(C(=O)O)cn2)c1,CC(C)COc1cc(cc(c1)OCC(C)C)C(=O)Nc2ccc(cn2)C(=O)O,CC(C)COC=1C=C(C=C(C1)C(=O)NC=2C=CC(=CN2)C(=O)O)OCC(C)C,-4.5512937
HIGQPQRQIQDZMP-UHFFFAOYSA-N,GERANYL  ACETATE,CC(=O)OC/C=C(/C)CCC=C(C)C,CC(=CCC/C(=C\COC(=O)C)/C)C,CC(=O)OC/C=C(\C)/CCC=C(C)C,-3.756555408