inchikey,Name,SMILES_stand,SMILES,kekSmiles,logS
FERSVQMGZUZBGA-UHFFFAOYSA-N,,CN(C)C(=O)C(Cc1ccccc1)NC(=O)c1cc2sccc2[nH]1,CN(C)C(=O)C(Cc1ccccc1)NC(=O)c2cc3c([nH]2)ccs3,CN(C)C(=O)C(CC=1C=CC=CC1)NC(=O)C2=CC=3SC=CC3N2,-4.7695511
FFAQILVGBAELHN-UHFFFAOYSA-N,"1-(butan-2-yl)-4-{4-[4-(4-hydroxyphenyl)piperazin-1-yl]phenyl}-4,5-dihydro-1H-1,2,4-triazol-5-one",CCC(C)n1ncn(-c2ccc(N3CCN(c4ccc(O)cc4)CC3)cc2)c1=O,CCC(C)n1c(=O)n(cn1)c2ccc(cc2)N3CCN(CC3)c4ccc(cc4)O,CCC(C)N1N=CN(C1=O)C=2C=CC(=CC2)N3CCN(CC3)C=4C=CC(=CC4)O,-4.828760978
FFBDFADSZUINTG-UHFFFAOYSA-N,"1,3-dipropyl-8-cyclopentylxanthine",CCCn1c(=O)c2[nH]c(C3CCCC3)nc2n(CCC)c1=O,CCCn1c2c(c(=O)n(c1=O)CCC)[nH]c(n2)C3CCCC3,CCCN1C(=O)N(C=2N=C(NC2C1=O)C3CCCC3)CCC,-4.96
FFCCBBNQPIMUJI-UHFFFAOYSA-N,"imazamethabenz (para-isomer);  2-[4,5-dihydro-4-isopropyl-4-methyl-5-oxo-1h-imidazol-2-yl]-4-methylbenzoic acid methyl ester",COC(=O)c1ccc(C)cc1C1=NC(C)(C(C)C)C(=O)N1,Cc1ccc(c(c1)C2=NC(C(=O)N2)(C)C(C)C)C(=O)OC,COC(=O)C=1C=CC(=CC1C2=NC(C(=O)N2)(C)C(C)C)C,-2.46
FFDSBPWPIWFBPE-UHFFFAOYSA-N,,Nc1nc(Oc2cccc(F)c2)nc2nc(-c3ccco3)nn12,c1cc(cc(c1)F)Oc2nc(n3c(n2)nc(n3)c4ccco4)N,NC1=NC(=NC=2N1N=C(N2)C3=CC=CO3)OC=4C=CC=C(C4)F,-5.0892292
FFELGYNQPHSTQI-UHFFFAOYSA-N,,O=C(c1ccc(-c2ccncc2)cc1)N1CCN(S(=O)(=O)c2cc3cc(Cl)ccc3o2)CC1,c1cc(ccc1c2ccncc2)C(=O)N3CCN(CC3)S(=O)(=O)c4cc5cc(ccc5o4)Cl,ClC=1C=CC=2OC(=CC2C1)S(=O)(=O)N3CCN(CC3)C(=O)C=4C=CC(=CC4)C=5C=CN=CC5,-6.758793400000001
FFEOEKMMMQFWBO-UHFFFAOYSA-N,4-(propan-2-yl)cyclohexyl propanoate,CCC(=O)OC1CCC(C(C)C)CC1,CCC(=O)OC1CCC(CC1)C(C)C,CCC(=O)OC1CCC(CC1)C(C)C,-4.173242107
FFETWUGJXIAOJT-UHFFFAOYSA-N,,O=C(NCCNc1ccccn1)c1cc2sc(Cl)cc2[nH]1,c1ccnc(c1)NCCNC(=O)c2cc3c([nH]2)cc(s3)Cl,ClC1=CC=2NC(=CC2S1)C(=O)NCCNC=3C=CC=CN3,-5.6197888
FFFIRKXTFQCCKJ-UHFFFAOYSA-N,"2,4,6-Trimethylbenzoic acid",Cc1cc(C)c(C(=O)O)c(C)c1,Cc1cc(c(c(c1)C)C(=O)O)C,CC=1C=C(C(=C(C1)C)C(=O)O)C,-2.3569999999999998
FFFPYJTVNSSLBQ-UHFFFAOYSA-N,phenolphthalin,O=C(O)c1ccccc1C(c1ccc(O)cc1)c1ccc(O)cc1,c1ccc(c(c1)C(c2ccc(cc2)O)c3ccc(cc3)O)C(=O)O,OC=1C=CC(=CC1)C(C=2C=CC(=CC2)O)C=3C=CC=CC3C(=O)O,-3.2628
FFGKFDRZZAJYCH-UHFFFAOYSA-N,3-Heptanoyloxymethylphenytoin,CCCCCCC(=O)OCN1C(=O)NC(c2ccccc2)(c2ccccc2)C1=O,CCCCCCC(=O)OCN1C(=O)C(NC1=O)(c2ccccc2)c3ccccc3,O=C1N(C(=O)C(N1)(C=2C=CC=CC2)C=3C=CC=CC3)COC(=O)CCCCCC,-6.301
FFGPTBGBLSHEPO-UHFFFAOYSA-N,carbamazepine,NC(=O)N1c2ccccc2C=Cc2ccccc21,c1ccc2c(c1)C=Cc3ccccc3N2C(=O)N,O=C(N)N1C=2C(=CC=CC2)C=CC=3C1=CC=CC3,-3.29
FFJIOGAAFGBMMO-UHFFFAOYSA-N,,O=C(O)c1cc2cc(O)ccc2n1Cc1ccc(Cl)c(C(F)(F)F)c1,c1cc(c(cc1Cn2c3ccc(cc3cc2C(=O)O)O)C(F)(F)F)Cl,OC(=O)C1=CC=2C=C(C=CC2N1CC=3C=CC(=C(C3)C(F)(F)F)Cl)O,-2.4203667999999996
FFJIWWBSBCOKLS-UHFFFAOYSA-N,SULFAETHOXYPYR,CCOc1ccc(NS(=O)(=O)c2ccc(N)cc2)nn1,CCOc1ccc(nn1)NS(=O)(=O)c2ccc(cc2)N,S(=O)(=O)(NC1=NN=C(C=C1)OCC)C2=CC=C(C=C2)N,-2.427
FFJMXGFVECOWJQ-UHFFFAOYSA-N,"Benzenesulfonic acid, mono-C11-13-branched alkyl derivs., sodium salts",CCCCC(CC)CCCCCc1ccc(S(=O)(=O)O)cc1,CCCCC(CC)CCCCCc1ccc(cc1)S(=O)(=O)O,CCCCC(CC)CCCCCC=1C=CC(=CC1)S(=O)(=O)O,-0.096907826
FFJPNILEXMWNGD-UHFFFAOYSA-N,,CCn1c(C)c(C)c2cc(Nc3ccc(C)nn3)ccc21,CCn1c(c(c2c1ccc(c2)Nc3ccc(nn3)C)C)C,CCN1C(=C(C2=C1C=CC(=C2)NC=3C=CC(=NN3)C)C)C,-5.7447275
FFKRWPQQTGWKIH-UHFFFAOYSA-N,"7-chloro-3',4,6-trimethoxy-5'-methylspiro[1-benzofuran-2,6'-cyclohex-2-ene]-1',3-dione",COC1=CC(=O)C2(Oc3c(Cl)c(OC)cc(OC)c3C2=O)C(C)C1,CC1CC(=CC(=O)C12C(=O)c3c(cc(c(c3O2)Cl)OC)OC)OC,COC1=CC(=O)C2(OC3=C(C(=CC(=C3Cl)OC)OC)C2=O)C(C1)C,-4.399
FFQPZWRNXKPNPX-UHFFFAOYSA-N,,CCC(Oc1ccc(F)c(C(F)(F)F)c1)C(=O)NCc1ccccc1,CCC(C(=O)NCc1ccccc1)Oc2ccc(c(c2)C(F)(F)F)F,FC(F)(F)C1=CC(=CC=C1F)OC(C(=O)NCC2=CC=CC=C2)CC,-5.033
FFRFGVHNKJYNOV-UHFFFAOYSA-N,anhydrovinblastine,CCC1=C[C@@H]2CN(CCc3c([nH]c4ccccc34)[C@@](C(=O)OC)(c3cc4c(cc3OC)N(C)[C@H]3[C@@](O)(C(=O)OC)[C@H](OC(C)=O)[C@]5(CC)C=CCN6CC[C@]43[C@@H]65)C2)C1,CCC1=C[C@H]2C[C@@](c3c(c4ccccc4[nH]3)CCN(C2)C1)(c5cc6c(cc5OC)N([C@@H]7[C@]68CCN9[C@H]8[C@@](C=CC9)([C@H]([C@@]7(C(=O)OC)O)OC(=O)C)CC)C)C(=O)OC,CCC1=C[C@H]2C[C@@](C3=C(C4=CC=CC=C4N3)CCN(C2)C1)(C5=C(C=C6C(=C5)[C@]78CCN9[C@H]7[C@@](C=CC9)([C@H]([C@@]([C@@H]8N6C)(C(=O)OC)O)OC(=O)C)CC)OC)C(=O)OC,-1.89925128
FFRICMZNIZDKMN-UHFFFAOYSA-N,,Cc1ccccc1COc1cc(OCc2ccccn2)cc(C(=O)Nc2ccc(C(=O)O)cn2)c1,Cc1ccccc1COc2cc(cc(c2)OCc3ccccn3)C(=O)Nc4ccc(cn4)C(=O)O,CC=1C=CC=CC1COC=2C=C(C=C(C2)C(=O)NC=3C=CC(=CN3)C(=O)O)OCC=4C=CC=CN4,-5.8239087
FFRYUAVNPBUEIC-UHFFFAOYSA-N,,Oc1cnc2ccccc2n1,c1ccc2c(c1)ncc(n2)O,OC1=CN=C2C=CC=CC2=N1,-0.9499
FFSSWMQPCJRCRV-UHFFFAOYSA-N,"quinclorac; 3,7-dichloro-8-carboxyquinoline; 3,7-dichloro-8-quinolinecarboxylic acid",O=C(O)c1c(Cl)ccc2cc(Cl)cnc12,c1cc(c(c2c1cc(cn2)Cl)C(=O)O)Cl,OC(=O)C1=C(C=CC2=C1N=CC(=C2)Cl)Cl,-5.0705
FFTVPQUHLQBXQZ-UHFFFAOYSA-N,minocycline hydrochloride,CN(C)c1ccc(O)c2c1C[C@H]1C[C@H]3[C@H](N(C)C)C(=O)C(C(N)=O)=C(O)[C@@]3(O)C(=O)C1=C2O,CN(C)c1ccc(c2c1C[C@H]3C[C@H]4[C@@H](C(=O)C(=C([C@]4(C(=O)C3=C2O)O)O)C(=O)N)N(C)C)O,OC12C(CC3C(=C(C=4C(=C(C=CC4O)N(C)C)C3)O)C1=O)C(C(=O)C(=C2O)C(=O)N)N(C)C,-0.969302097
FFUGJWVSUGFHLO-UHFFFAOYSA-N,,CC(C)(C)OC(=O)NS(=O)(=O)c1ccc(-c2ccc(-c3ccsc3)cc2)cc1,CC(C)(C)OC(=O)NS(=O)(=O)c1ccc(cc1)c2ccc(cc2)c3ccsc3,CC(C)(C)OC(=O)NS(=O)(=O)C=1C=CC(=CC1)C=2C=CC(=CC2)C=3C=CSC3,-5.679853700000001
FFVPRSKCTDQLBP-UHFFFAOYSA-N,9-Methylnonadecane,CCCCCCCCCCC(C)CCCCCCCC,CCCCCCCCCCC(C)CCCCCCCC,CCCCCCCCCCC(C)CCCCCCCC,-6.451052267000001
FFWCBXXLTJLUOY-UHFFFAOYSA-N,"4-(4-Bromo-2-fluorophenylamino)-1,5-dimethyl-6-oxo-1,6-dihydropyridine-3-carboxylic acid methoxyamide",CONC(=O)c1cn(C)c(=O)c(C)c1Nc1ccc(Br)cc1F,Cc1c(c(cn(c1=O)C)C(=O)NOC)Nc2ccc(cc2F)Br,CONC(=O)C1=CN(C(=O)C(=C1NC2=CC=C(C=C2F)Br)C)C,-3.28
FFWGHEZSBSOVRZ-UHFFFAOYSA-N,"NAPROXEN,  ESTER 3A",COc1ccc2cc(C(C)C(=O)OCCOC(=O)CN3CCOCC3)ccc2c1,CC(c1ccc2cc(ccc2c1)OC)C(=O)OCCOC(=O)CN3CCOCC3,COC1=CC2=CC=C(C=C2C=C1)C(C)C(=O)OCCOC(=O)CN3CCOCC3,-4.3
FFYRIXSGFSWFAQ-UHFFFAOYSA-N,1-dodecylpyridin-1-ium chloride,CCCCCCCCCCCC[n+]1ccccc1,CCCCCCCCCCCC[n+]1ccccc1,CCCCCCCCCCCC[N+]=1C=CC=CC1,-0.453905269
FGAPRWBLQYRANH-UHFFFAOYSA-L,"disodium 1,4-bis(4-phenylsulfonyloxybutan-2-ylimino)anthracene-9,10-diolate",CC(CCOS(=O)(=O)c1ccccc1)[N-]c1ccc([N-]C(C)CCOS(=O)(=O)c2ccccc2)c2c1C(=O)c1ccccc1C2=O,CC(CCOS(=O)(=O)c1ccccc1)[N-]c2ccc(c3c2C(=O)c4ccccc4C3=O)[N-]C(C)CCOS(=O)(=O)c5ccccc5,CC(CCOS(=O)(=O)C=1C=CC=CC1)[N-]C=2C=CC(=C3C2C(=O)C4=C(C=CC=C4)C3=O)[N-]C(C)CCOS(=O)(=O)C=5C=CC=CC5,-0.437623056
FGAPXYWEQVSGDJ-UHFFFAOYSA-N,7-(3-amino-2-methylazetidin-1-yl)-8-chloro-1-cyclopropyl-6-fluoro-4-oxoquinoline-3-carboxylic acid,CC1C(N)CN1c1c(F)cc2c(=O)c(C(=O)O)cn(C3CC3)c2c1Cl,CC1C(CN1c2c(cc3c(c2Cl)n(cc(c3=O)C(=O)O)C4CC4)F)N,CC1C(CN1C2=C(C3=C(C=C2F)C(=O)C(=CN3C4CC4)C(=O)O)Cl)N,-4.4815
FGBABFPXLOTMDQ-UHFFFAOYSA-N,,Cc1cc(Nc2nc(NCCc3ccccn3)ncc2Cl)[nH]n1,Cc1cc([nH]n1)Nc2c(cnc(n2)NCCc3ccccn3)Cl,CC=1C=C(NN1)NC=2N=C(N=CC2Cl)NCCC=3C=CC=CN3,-4.6161845999999995
FGBYOIFCLHXMGW-UHFFFAOYSA-N,"Butyric acid, 3,3'-thiodi-, meso-",CC(CC(=O)O)SC(C)CC(=O)O,CC(CC(=O)O)SC(C)CC(=O)O,C(C(=O)O)C(SC(CC(=O)O)C)C,0.3846
FGCPRSQBINPSBS-UHFFFAOYSA-N,,COc1cc2c(Nc3cnc(NC(=O)c4ccc(F)c(Cl)c4)nc3)ncnc2cc1OCCCN1C(C)CCCC1C,CC1CCCC(N1CCCOc2cc3c(cc2OC)c(ncn3)Nc4cnc(nc4)NC(=O)c5ccc(c(c5)Cl)F)C,COC=1C=C2C(=NC=NC2=CC1OCCCN3C(CCCC3C)C)NC=4C=NC(=NC4)NC(=O)C=5C=CC(=C(C5)Cl)F,-5.60206
FGDQSXPQXNAOIF-UHFFFAOYSA-N,,CN1N=C(CSc2ccccc2)CC1=O,CN1C(=O)CC(=N1)CSc2ccccc2,CN1N=C(CC1=O)CSC=2C=CC=CC2,-2.5686362000000003
FGERXQWKKIVFQG-UHFFFAOYSA-N,"Benzoic acid, 5-bromo-2-chloro-",O=C(O)c1cc(Br)ccc1Cl,c1cc(c(cc1Br)C(=O)O)Cl,OC(=O)C=1C=C(C=CC1Cl)Br,-1.952
FGFHFHXVPZXINJ-UHFFFAOYSA-N,"N-hydroxy-7-methyl-1,3,3~{a},4,5,6-hexahydrobenzo[de]isoquinoline-2-carboximidamide",Cc1ccc2c3c1CCCC3CN(/C(N)=N/O)C2,Cc1ccc2c3c1CCCC3CN(C2)/C(=N/O)/N,CC1=CC=C2C3=C1CCCC3CN(C2)/C(=N/O)/N,-1.198
FGGBZSZOWQHOMZ-UHFFFAOYSA-N,,NC(=O)Nc1sc(-c2cccc(OCCN3CCCCC3)c2)cc1C(N)=O,c1cc(cc(c1)OCCN2CCCCC2)c3cc(c(s3)NC(=O)N)C(=O)N,NC(=O)NC=1SC(=CC1C(=O)N)C=2C=CC=C(C2)OCCN3CCCCC3,-3.5850267
FGHASFXPPZZVHN-UHFFFAOYSA-N,,CCN(CC)CCS(=O)(=O)c1ccc(Nc2ncc(C#N)c(NC3CC3)n2)cc1,CCN(CC)CCS(=O)(=O)c1ccc(cc1)Nc2ncc(c(n2)NC3CC3)C#N,CCN(CC)CCS(=O)(=O)C=1C=CC(=CC1)NC=2N=CC(=C(N2)NC3CC3)C#N,-4.6777807000000005
FGIWFCGDPUIBEZ-UHFFFAOYSA-N,ETRIMFOS,CCOc1cc(OP(=S)(OC)OC)nc(CC)n1,CCc1nc(cc(n1)OP(=S)(OC)OC)OCC,P(=S)(OC=1N=C(N=C(C1)OCC)CC)(OC)OC,-3.8639
FGNYUXCJAQVCAW-UHFFFAOYSA-N,,CN(C)CC(O)COc1ccc(Nc2ncc(Br)c(Nc3ccc(C(F)(F)F)cc3)n2)cc1,CN(C)CC(COc1ccc(cc1)Nc2ncc(c(n2)Nc3ccc(cc3)C(F)(F)F)Br)O,CN(C)CC(O)COC=1C=CC(=CC1)NC=2N=CC(=C(N2)NC=3C=CC(=CC3)C(F)(F)F)Br,-5.0530637
FGPPDYNPZTUNIU-UHFFFAOYSA-N,Pentyl pentanoate,CCCCCOC(=O)CCCC,CCCCCOC(=O)CCCC,CCCCCOC(=O)CCCC,-3.6242406519999997
FGQFOYHRJSUHMR-UHFFFAOYSA-N,lesinurad,O=C(O)CSc1nnc(Br)n1-c1ccc(C2CC2)c2ccccc12,c1ccc2c(c1)c(ccc2n3c(nnc3Br)SCC(=O)O)C4CC4,C1CC1C2=CC=C(C=3C2=CC=CC3)N4C(=NN=C4Br)SCC(=O)O,-4.828531007
FGSBMPLRSMYGCV-UHFFFAOYSA-N,"Octanoic acid, 2,4-dioxo-",CCCCC(=O)CC(=O)C(=O)O,CCCCC(=O)CC(=O)C(=O)O,C(=O)(C(=O)O)CC(=O)CCCC,-0.9572
FGTROJOMGKSWDG-UHFFFAOYSA-N,,Cc1cc2c(ccc(=O)n2Cc2ccc(-c3ccccc3-c3nnn[nH]3)cc2)c(C)n1,Cc1cc2c(ccc(=O)n2Cc3ccc(cc3)c4ccccc4c5[nH]nnn5)c(n1)C,CC=1C=C2N(C(=O)C=CC2=C(N1)C)CC=3C=CC(=CC3)C=4C=CC=CC4C5=NN=NN5,-3.3599997999999998
FGTUURCUDSRTKN-UHFFFAOYSA-N,,Fc1cc(C2=NOC(COc3ccon3)C2)ccc1-n1cccn1,c1cnn(c1)c2ccc(cc2F)C3=NOC(C3)COc4ccon4,FC=1C=C(C=CC1N2C=CC=N2)C3=NOC(C3)COC=4C=CON4,-4.2757241
FGUNPKNDGHLNIR-UHFFFAOYSA-N,,O=C(O)Cn1nnnc1CSCC(=O)COc1ccc(SCCCCCc2ccccc2)cc1,c1ccc(cc1)CCCCCSc2ccc(cc2)OCC(=O)CSCc3nnnn3CC(=O)O,N1=NN=C(N1CC(=O)O)CSCC(=O)COC=2C=CC(=CC2)SCCCCCC=3C=CC=CC3,-3.7218019
FGVUALJOVZKHOH-UHFFFAOYSA-N,"1,2-Pentanediol, 1-phenyl-2-propyl-",CCCC(O)(CCC)C(O)c1ccccc1,CCCC(CCC)(C(c1ccccc1)O)O,CCCC(O)(CCC)C(O)C=1C=CC=CC1,-2.648
FGXRKDZZPDMPAQ-UHFFFAOYSA-N,3-(2-oxopyridin-1-yl)propanoic acid,O=C(O)CCn1ccccc1=O,c1ccn(c(=O)c1)CCC(=O)O,O=C(O)CCN1C=CC=CC1=O,-0.5995
FGXWKSZFVQUSTL-UHFFFAOYSA-N,domperidone,O=c1[nH]c2ccccc2n1CCCN1CCC(n2c(=O)[nH]c3cc(Cl)ccc32)CC1,c1ccc2c(c1)[nH]c(=O)n2CCCN3CCC(CC3)n4c5ccc(cc5[nH]c4=O)Cl,C1CN(CCC1N2C3=C(C=C(C=C3)Cl)NC2=O)CCCN4C5=CC=CC=C5NC4=O,-4.851166587
FHDQHEOAACLQKL-UHFFFAOYSA-N,,COc1cc2c(Nc3cnc(C(=O)Nc4ccc(F)cc4F)nc3)ncnc2cc1OCCCN1CCCC1,COc1cc2c(cc1OCCCN3CCCC3)ncnc2Nc4cnc(nc4)C(=O)Nc5ccc(cc5F)F,COC=1C=C2C(=NC=NC2=CC1OCCCN3CCCC3)NC=4C=NC(=NC4)C(=O)NC=5C=CC(=CC5F)F,-6.6777807000000005
FHEHIXJLCWUPCZ-UHFFFAOYSA-N,"1,2-Benzenediol, 4-(2-propenyl)-",C=CCc1ccc(O)c(O)c1,C=CCc1ccc(c(c1)O)O,OC=1C=CC(=CC1O)CC=C,-0.7787
FHEZEGIZKWCLOF-UHFFFAOYSA-N,,CS(=O)(=O)c1ccc(OCc2ccccc2)c(CNc2ccc(C(=O)O)cc2)c1,CS(=O)(=O)c1ccc(c(c1)CNc2ccc(cc2)C(=O)O)OCc3ccccc3,CS(=O)(=O)C=1C=CC(=C(C1)CNC=2C=CC(=CC2)C(=O)O)OCC=3C=CC=CC3,-3.9956786
FHFYDNQZQSQIAI-UHFFFAOYSA-N,pefloxacin,CCn1cc(C(=O)O)c(=O)c2cc(F)c(N3CCN(C)CC3)cc21,CCn1cc(c(=O)c2c1cc(c(c2)F)N3CCN(CC3)C)C(=O)O,CCN1C=C(C(=O)C=2C1=CC(=C(C2)F)N3CCN(CC3)C)C(=O)O,-1.47
FHHCKYIBYRNHOZ-UHFFFAOYSA-N,,c1ccc(-c2c[nH]c(-c3ccccc3)n2)cc1,c1ccc(cc1)c2c[nH]c(n2)c3ccccc3,C=1NC(=NC1C=2C=CC=CC2)C=3C=CC=CC3,-3.8239087
FHIVAFMUCKRCQO-UHFFFAOYSA-N,diethoxy-(6-methyl-2-propan-2-ylpyrimidin-4-yl)oxy-sulfanylidenephosphorane,CCOP(=S)(OCC)Oc1cc(C)nc(C(C)C)n1,CCOP(=S)(OCC)Oc1cc(nc(n1)C(C)C)C,S=P(OCC)(OCC)OC1=NC(=NC(=C1)C)C(C)C,-3.82
FHKGIPRBBLEQEX-UHFFFAOYSA-N,(cyclohexylmethyl)tris(dimethylamino)phosphanium; tetrafluoroboranuide,CN(C)[P+](CC1CCCCC1)(N(C)C)N(C)C,CN(C)[P+](CC1CCCCC1)(N(C)C)N(C)C,CN(C)[P+](CC1CCCCC1)(N(C)C)N(C)C,-1.507071726
FHKLRJVNYLEIRF-UHFFFAOYSA-N,"3H-Pyrazol-3-one, 4,4'-methylenebis[1,2-dihydro-",CC1=C(Cc2c(C)n(C)n(-c3ccccc3)c2=O)C(=O)c2ccccc2NN1C,Cc1c(c(=O)n(n1C)c2ccccc2)CC3=C(N(Nc4ccccc4C3=O)C)C,C=1(C(=O)N(N(C1C)C)C=2C=CC=CC2)CC3=C(N(NC=4C(=CC=CC4)C3=O)C)C,-2.955
FHLYBVYVZLBILH-UHFFFAOYSA-N,,CCN1CC(CNc2cc(C)nc3ccccc23)CCC1CNS(=O)(=O)c1ccccc1,CCN1CC(CCC1CNS(=O)(=O)c2ccccc2)CNc3cc(nc4c3cccc4)C,CCN1CC(CCC1CNS(=O)(=O)C=2C=CC=CC2)CNC=3C=C(N=C4C3C=CC=C4)C,-2.79588
FHMXCHKFEJRQBC-UHFFFAOYSA-N,,Cc1ccc(S(=O)(=O)Nc2ccc(-c3ccccc3)n(CC(=O)NC(C(=O)C(F)(F)F)C(C)C)c2=O)cc1,Cc1ccc(cc1)S(=O)(=O)Nc2ccc(n(c2=O)CC(=O)NC(C(C)C)C(=O)C(F)(F)F)c3ccccc3,CC(C)C(NC(=O)CN1C(=CC=C(C1=O)NS(=O)(=O)C=2C=CC(=CC2)C)C=3C=CC=CC3)C(=O)C(F)(F)F,-4.8860566
FHNAJOPBKYYBKE-UHFFFAOYSA-N,,CCN(CC)CCCOc1cc2c(Nc3cc(NC(=O)c4ccnc(N5CCOCC5)c4)ccc3C)ncnc2cc1OC,CCN(CC)CCCOc1cc2c(cc1OC)ncnc2Nc3cc(ccc3C)NC(=O)c4ccnc(c4)N5CCOCC5,CCN(CC)CCCOC=1C=C2C(=NC=NC2=CC1OC)NC=3C=C(C=CC3C)NC(=O)C=4C=CN=C(C4)N5CCOCC5,-2.9586072999999997
FHNKBSDJERHDHZ-UHFFFAOYSA-N,,CC(C)=CC1C(C(=O)OCc2ccc(C)cc2C)C1(C)C,Cc1ccc(c(c1)C)COC(=O)C2C(C2(C)C)C=C(C)C,C1(C(C1C=C(C)C)C(=O)OCC2=C(C=C(C=C2)C)C)(C)C,-6.901
FHPBWQWLOSHMLI-UHFFFAOYSA-N,N-ISONICOTINOYL-N'-(2-METHYLBENZOYL)HYDRAZINE,Cc1ccccc1C(=O)NNC(=O)c1ccncc1,Cc1ccccc1C(=O)NNC(=O)c2ccncc2,CC1=C(C=CC=C1)C(=O)NNC(=O)C2=CC=NC=C2,-2.73
FHRQLQYMKPUFFY-UHFFFAOYSA-N,,CCC(O)CNS(=O)(=O)c1ccc(Nc2nccc(-c3cnc(C)n3C)n2)cc1,CCC(CNS(=O)(=O)c1ccc(cc1)Nc2nccc(n2)c3cnc(n3C)C)O,CCC(O)CNS(=O)(=O)C=1C=CC(=CC1)NC=2N=CC=C(N2)C3=CN=C(N3C)C,-4.69897
FHTGJZOULSYEOB-UHFFFAOYSA-N,"2,6-DI-SEC-BUTYLPHENOL",CC[C@H](C)c1cccc([C@H](C)CC)c1O,CC[C@@H](C)c1cccc(c1O)[C@@H](C)CC,CC[C@@H](C)C=1C=CC=C(C1O)[C@@H](C)CC,-5.059
FHYQDZHSAPUGNM-UHFFFAOYSA-N,,COc1cc2c(Nc3ccc(F)c(Cl)c3)ncnc2cc1OCCCN1CCS(=O)(=O)CC1,COc1cc2c(cc1OCCCN3CCS(=O)(=O)CC3)ncnc2Nc4ccc(c(c4)Cl)F,COC=1C=C2C(=NC=NC2=CC1OCCCN3CCS(=O)(=O)CC3)NC=4C=CC(=C(C4)Cl)F,-6.3565473
FIBGGVTWOTYYME-UHFFFAOYSA-N,,CCS(=O)(=O)c1ccc(NC(=O)C(C)(O)C(F)(F)F)c(Cl)c1N1CCS(=O)(=O)CC1,CCS(=O)(=O)c1ccc(c(c1N2CCS(=O)(=O)CC2)Cl)NC(=O)C(C)(C(F)(F)F)O,CCS(=O)(=O)C=1C=CC(=C(C1N2CCS(=O)(=O)CC2)Cl)NC(=O)C(C)(O)C(F)(F)F,-3.3910415
FIBHPFIAZBZAIW-UHFFFAOYSA-N,"sodium 2-{2,5-dichloro-4-[(E)-2-(2-methyl-1H-indol-3-yl)diazen-1-yl]benzenesulfonamido}ethane-1-sulfonate",CC1=Nc2ccccc2/C1=N\Nc1cc(Cl)c(S(=O)(=O)NCCS(=O)(=O)O)cc1Cl,CC\1=Nc2ccccc2/C1=N\Nc3cc(c(cc3Cl)S(=O)(=O)NCCS(=O)(=O)O)Cl,CC\1=NC=2C=CC=CC2/C1=N/NC=3C=C(C(=CC3Cl)S(=O)(=O)NCCS(=O)(=O)O)Cl,-3.7560000000000002
FICWGWVVIRLNRB-UHFFFAOYSA-N,,COCC(=O)OC(c1ncccc1S(=O)(=O)NC(=O)Nc1nc(OC)cc(OC)n1)C(C)F,CC(C(c1c(cccn1)S(=O)(=O)NC(=O)Nc2nc(cc(n2)OC)OC)OC(=O)COC)F,C(=O)(COC)OC(C(C)F)C1=C(C=CC=N1)S(=O)(=O)NC(=O)NC2=NC(=CC(=N2)OC)OC,-3.6310000000000002
FIDXRZXQQKNEQZ-UHFFFAOYSA-N,,CNCC(=O)Nc1ccc2ncnc(Nc3ccc(Oc4ccccn4)c(Cl)c3)c2c1,CNCC(=O)Nc1ccc2c(c1)c(ncn2)Nc3ccc(c(c3)Cl)Oc4ccccn4,CNCC(=O)NC=1C=CC=2N=CN=C(C2C1)NC=3C=CC(=C(C3)Cl)OC=4C=CC=CN4,-4.69897
FIHBHSQYSYVZQE-UHFFFAOYSA-N,6-(prop-2-enoyloxy)hexyl prop-2-enoate,C=CC(=O)OCCCCCCOC(=O)C=C,C=CC(=O)OCCCCCCOC(=O)C=C,C=CC(=O)OCCCCCCOC(=O)C=C,-2.819
FIICNUDAUOUCMD-UHFFFAOYSA-N,"D-Glucose, 1-(carbamoylimino)-1-deoxy-",NC(=O)/N=C/C(O)C(O)C(O)C(O)CO,C(C(C(C(C(/C=N/C(=O)N)O)O)O)O)O,O=C(/N=C/C(O)C(O)C(O)C(O)CO)N,0.19715
FIIPIQBWGBRMTN-UHFFFAOYSA-N,"methyl 3-({4-[(E)-2-(2,4-dinitrophenyl)diazen-1-yl]-3-acetamidophenyl}(3-methoxy-3-oxopropyl)amino)propanoate",COC(=O)CCN(CCC(=O)OC)c1ccc(/N=N/c2ccc([N+](=O)[O-])cc2[N+](=O)[O-])c(NC(C)=O)c1,CC(=O)Nc1cc(ccc1/N=N/c2ccc(cc2[N+](=O)[O-])[N+](=O)[O-])N(CCC(=O)OC)CCC(=O)OC,COC(=O)CCN(CCC(=O)OC)C=1C=CC(=C(C1)NC(=O)C)/N=N/C=2C=CC(=CC2[N+](=O)[O-])[N+](=O)[O-],-7.332915667999999
FILYZEHOXNIFFY-UHFFFAOYSA-N,,COCCN1CCN(CCCOc2cc3c(Nc4ccc(F)c(Cl)c4)ncnc3cc2OC)CC1,COCCN1CCN(CC1)CCCOc2cc3c(cc2OC)ncnc3Nc4ccc(c(c4)Cl)F,COCCN1CCN(CC1)CCCOC=2C=C3C(=NC=NC3=CC2OC)NC=4C=CC(=C(C4)Cl)F,-3.5850267
FINHFDCNIJXJDR-UHFFFAOYSA-N,"Benzenesulfonamide, 4-amino-N-2-pyridinyl-, N-ox",Nc1ccc(S(=O)(=O)Nc2cccc[n+]2[O-])cc1,c1cc[n+](c(c1)NS(=O)(=O)c2ccc(cc2)N)[O-],S(=O)(=O)(NC1=[N+](C=CC=C1)[O-])C2=CC=C(C=C2)N,-2.4019999999999997
FINOAUDUYKVGDS-UHFFFAOYSA-N,2-tert-Butylcyclohexyl acetate,CC(=O)O[C@@H]1CCCC[C@@H]1C(C)(C)C,CC(=O)O[C@@H]1CCCC[C@@H]1C(C)(C)C,CC(=O)O[C@@H]1CCCC[C@@H]1C(C)(C)C,-4.297167928
FIPWRIJSWJWJAI-UHFFFAOYSA-N,PIPERONYL BUTOXIDE,CCCCOCCOCCOCc1cc2c(cc1CCC)OCO2,CCCCOCCOCCOCc1cc2c(cc1CCC)OCO2,CCCCOCCOCCOCC=1C=C2C(=CC1CCC)OCO2,-4.262544459
FIQMHBFVRAXMOP-UHFFFAOYSA-N,TRIPHENYLPHOSPHINE OXIDE,O=P(c1ccccc1)(c1ccccc1)c1ccccc1,c1ccc(cc1)P(=O)(c2ccccc2)c3ccccc3,O=P(C=1C=CC=CC1)(C=2C=CC=CC2)C=3C=CC=CC3,-2.877236398
FIQPRTCFITVJHY-UHFFFAOYSA-N,,C#CCN(c1ccc(C(=O)NCc2cccnc2)nc1)C1CCc2cc3nc(C)n(C)c(=O)c3cc21,Cc1nc2cc3c(cc2c(=O)n1C)C(CC3)N(CC#C)c4ccc(nc4)C(=O)NCc5cccnc5,CC1=NC=2C=C3C(=CC2C(=O)N1C)C(CC3)N(CC#C)C=4C=CC(=NC4)C(=O)NCC=5C=CC=NC5,-4.636388
FISMTDVFYIMUBI-UHFFFAOYSA-N,,O=C(c1cc2ccccc2[nH]1)N1CCN(c2ccccn2)CC1,c1ccc2c(c1)cc([nH]2)C(=O)N3CCN(CC3)c4ccccn4,O=C(N1CCN(CC1)C=2C=CC=CN2)C3=CC=4C=CC=CC4N3,-5.49485
FISMZKFJUDNTNK-UHFFFAOYSA-N,,COc1cc2ncnc(Nc3cccc(C#N)c3)c2cc1OCCCN1CCOCC1,COc1cc2c(cc1OCCCN3CCOCC3)c(ncn2)Nc4cccc(c4)C#N,COC=1C=C2N=CN=C(C2=CC1OCCCN3CCOCC3)NC=4C=CC=C(C4)C#N,-3.7958800000000004
FISXLVVJYDECGC-UHFFFAOYSA-N,,CC(COc1cc(NC(=O)Cc2ccc3nc(Nc4ccccc4)oc3c2)ccc1OCCCN1CCCCC1)CC(=O)O,CC(CC(=O)O)COc1cc(ccc1OCCCN2CCCCC2)NC(=O)Cc3ccc4c(c3)oc(n4)Nc5ccccc5,CC(COC=1C=C(C=CC1OCCCN2CCCCC2)NC(=O)CC=3C=CC=4N=C(OC4C3)NC=5C=CC=CC5)CC(=O)O,-3.5528419999999996
FITIWKDOCAUBQD-UHFFFAOYSA-N,PROTHIOPHOS,CCCSP(=S)(OCC)Oc1ccc(Cl)cc1Cl,CCCSP(=S)(OCC)Oc1ccc(cc1Cl)Cl,P(=S)(OC=1C(=CC(=CC1)Cl)Cl)(OCC)SCCC,-6.693
FIUFLISGGHNPSM-UHFFFAOYSA-N,P-MEO-B-PHENYLPROPIONIC ACID,COc1ccc(CCC(=O)O)cc1,COc1ccc(cc1)CCC(=O)O,COC=1C=CC(=CC1)CCC(=O)O,-2.2142
FIWCDMULNYGTKY-UHFFFAOYSA-N,,COc1cc2c(Nc3ccc(F)c(Cl)c3)ncnc2cc1OCCCN(C)CCO,CN(CCCOc1cc2c(cc1OC)c(ncn2)Nc3ccc(c(c3)Cl)F)CCO,COC=1C=C2C(=NC=NC2=CC1OCCCN(C)CCO)NC=3C=CC(=C(C3)Cl)F,-4.1366771
FIXRMBKEHQOGLC-UHFFFAOYSA-N,,CCn1c2ccccc2c2cc(NC(=O)CCc3ccc(S(C)(=O)=O)cc3)ccc21,CCn1c2ccccc2c3c1ccc(c3)NC(=O)CCc4ccc(cc4)S(=O)(=O)C,CCN1C=2C=CC=CC2C3=C1C=CC(=C3)NC(=O)CCC=4C=CC(=CC4)S(=O)(=O)C,-5.2218487
FIZUQFLSYHEOOL-UHFFFAOYSA-N,,O=C(O)c1ccc(NC(=O)c2cc(OCCN3CCOCC3)cc(OCc3ccccc3)c2)nc1,c1ccc(cc1)COc2cc(cc(c2)OCCN3CCOCC3)C(=O)Nc4ccc(cn4)C(=O)O,OC(=O)C=1C=CC(=NC1)NC(=O)C=2C=C(C=C(C2)OCC=3C=CC=CC3)OCCN4CCOCC4,-2.4436975
FJAQCHDLDMMLJX-UHFFFAOYSA-N,chlorothiazide sodium,NS(=O)(=O)c1cc2c(cc1Cl)N=C[N-]S2(=O)=O,c1c2c(cc(c1Cl)S(=O)(=O)N)S(=O)(=O)[N-]C=N2,C1=C2C(=CC(=C1Cl)S(=O)(=O)N)S(=O)(=O)[N-]C=N2,-2.656932845
FJBGIXKIXPUXBY-UHFFFAOYSA-N,,CC1(C)COC(C)(CCCc2ccc(Cl)cc2)N1C(=O)n1ccnc1,CC1(COC(N1C(=O)n2ccnc2)(C)CCCc3ccc(cc3)Cl)C,O=C(N1C(OCC1(C)C)(C)CCCC2=CC=C(C=C2)Cl)N3C=CN=C3,-3.728
FJBHTBZJUFPWJY-UHFFFAOYSA-N,,COc1cc2c(Nc3cnc(OCc4cccc(F)c4)nc3)ncnc2cc1OCCCNCCOCCO,COc1cc2c(cc1OCCCNCCOCCO)ncnc2Nc3cnc(nc3)OCc4cccc(c4)F,COC=1C=C2C(=NC=NC2=CC1OCCCNCCOCCO)NC=3C=NC(=NC3)OCC=4C=CC=C(C4)F,-4.1850868
FJBNJCPVCRMLFX-UHFFFAOYSA-N,,N#Cc1ccc(NC(=O)COCc2ccncc2)cc1C(F)(F)F,c1cc(c(cc1NC(=O)COCc2ccncc2)C(F)(F)F)C#N,FC(F)(F)C=1C=C(C=CC1C#N)NC(=O)COCC=2C=CN=CC2,-3.7695510999999997
FJCFFCXMEXZEIM-UHFFFAOYSA-N,N-OXIDENICOTINIC ACID,O=C(O)c1ccc[n+]([O-])c1,c1cc(c[n+](c1)[O-])C(=O)O,[N+]=1(C=C(C=CC1)C(=O)O)[O-],-1.298
FJDPATXIBIBRIM-UHFFFAOYSA-N,CYPHENOTHRIN,CC(C)=CC1C(C(=O)OC(C#N)c2cccc(Oc3ccccc3)c2)C1(C)C,CC(=CC1C(C1(C)C)C(=O)OC(C#N)c2cccc(c2)Oc3ccccc3)C,N#CC(OC(=O)C1C(C1(C)C)C=C(C)C)C2=CC=CC(=C2)OC3=CC=CC=C3,-7.5748
FJFYFBRNDHRTHL-UHFFFAOYSA-N,"1,2,4-tris(8-methylnonyl) benzene-1,2,4-tricarboxylate",CC(C)CCCCCCCOC(=O)c1ccc(C(=O)OCCCCCCCC(C)C)c(C(=O)OCCCCCCCC(C)C)c1,CC(C)CCCCCCCOC(=O)c1ccc(c(c1)C(=O)OCCCCCCCC(C)C)C(=O)OCCCCCCCC(C)C,CC(C)CCCCCCCOC(=O)C=1C=CC(=C(C1)C(=O)OCCCCCCCC(C)C)C(=O)OCCCCCCCC(C)C,-5.706786974
FJHGMUDVUAXUEK-UHFFFAOYSA-N,"Benzenesulfonic acid, 2-amino-4-methyl-",Cc1ccc(S(=O)(=O)O)c(N)c1,Cc1ccc(c(c1)N)S(=O)(=O)O,O=S(=O)(O)C=1C(=CC(=CC1)C)N,-2.126
FJHHZXWJVIEFGJ-UHFFFAOYSA-N,,COc1nc(C)cnc1NS(=O)(=O)c1cccnc1-c1ccc(-c2nnco2)cc1,Cc1cnc(c(n1)OC)NS(=O)(=O)c2cccnc2c3ccc(cc3)c4nnco4,COC=1N=C(C=NC1NS(=O)(=O)C=2C=CC=NC2C=3C=CC(=CC3)C4=NN=CO4)C,-2.9380905
FJIZXJXESRCCGG-UHFFFAOYSA-N,"1-Naphthalenesulfonic acid, 8-(2-hydroxy-1-napht",O=S(=O)(O)c1cccc2cccc(/N=N/c3c(O)ccc4ccccc34)c12,c1ccc2c(c1)ccc(c2/N=N/c3cccc4c3c(ccc4)S(=O)(=O)O)O,S(=O)(=O)(C=1C=2C(=CC=CC2C=CC1)/N=N/C=3C4=C(C=CC=C4)C=CC3O)O,-2.256
FJKROLUGYXJWQN-UHFFFAOYSA-N,p-hydroxybenzoic_acid,O=C(O)c1ccc(O)cc1,c1cc(ccc1C(=O)O)O,OC1=CC=C(C=C1)C(=O)O,-1.4409999999999998
FJLBFSROUSIWMA-UHFFFAOYSA-N,metyrapone,CC(C)(C(=O)c1cccnc1)c1cccnc1,CC(C)(c1cccnc1)C(=O)c2cccnc2,CC(C)(C1=CN=CC=C1)C(=O)C2=CN=CC=C2,-2.7211585210000004