inchikey,Name,SMILES_stand,SMILES,kekSmiles,logS
HXAWZGRVLVWKOU-UHFFFAOYSA-N,,COc1cc2c(Nc3ncc(CC(=O)Nc4cccc(Cl)c4)s3)ncnc2cc1OCC(O)CNC(C)(C)CO,CC(C)(CO)NCC(COc1cc2c(cc1OC)c(ncn2)Nc3ncc(s3)CC(=O)Nc4cccc(c4)Cl)O,COC=1C=C2C(=NC=NC2=CC1OCC(O)CNC(C)(C)CO)NC3=NC=C(S3)CC(=O)NC=4C=CC=C(C4)Cl,-5.9586073
HXCGCDGDOIUVCC-UHFFFAOYSA-N,1-[2-[[4-[(2-chloro-4-nitrophenyl)azo]phenyl]ethylamino]ethyl]pyridinium acetate,CCN(CC[n+]1ccccc1)c1ccc(/N=N/c2ccc([N+](=O)[O-])cc2Cl)cc1,CCN(CC[n+]1ccccc1)c2ccc(cc2)/N=N/c3ccc(cc3Cl)[N+](=O)[O-],CCN(CC[N+]=1C=CC=CC1)C=2C=CC(=CC2)/N=N/C=3C=CC(=CC3Cl)[N+](=O)[O-],-1.521945043
HXCILVUBKWANLN-UHFFFAOYSA-N,"4-{[4-(diethylamino)phenyl](phenyl)methylidene}-N,N-diethylcyclohexa-2,5-dien-1-iminium acetate",CCN(CC)c1ccc([C+](c2ccccc2)c2ccc(N(CC)CC)cc2)cc1,CCN(CC)c1ccc(cc1)[C+](c2ccccc2)c3ccc(cc3)N(CC)CC,CCN(CC)C=1C=CC(=CC1)[C+](C=2C=CC=CC2)C=3C=CC(=CC3)N(CC)CC,-1.3525
HXEKEEWEPJLCPW-UHFFFAOYSA-N,,CCCCOC(=O)Nc1ccc2ccn(Cc3cccc(-c4nnn[nH]4)c3)c2c1,CCCCOC(=O)Nc1ccc2ccn(c2c1)Cc3cccc(c3)c4[nH]nnn4,CCCCOC(=O)NC=1C=CC=2C=CN(C2C1)CC=3C=CC=C(C3)C4=NN=NN4,-3.1390634
HXEWMTXDBOQQKO-UHFFFAOYSA-N,"4,7-Dichloroquinoline",Clc1ccc2c(Cl)ccnc2c1,c1cc2c(ccnc2cc1Cl)Cl,ClC=1C=CC=2C(=CC=NC2C1)Cl,-2.8028123189999996
HXGDTGSAIMULJN-UHFFFAOYSA-N,Acenapthylene,C1=Cc2cccc3cccc1c23,c1cc2cccc3c2c(c1)C=C3,C=1C=CC=2C=CC=C3C2C1C=C3,-3.96
HXHWSAZORRCQMX-UHFFFAOYSA-N,Albendazole,CCCSc1ccc2[nH]c(NC(=O)OC)nc2c1,CCCSc1ccc2c(c1)nc([nH]2)NC(=O)OC,CCCSC1=CC2=C(NC(=N2)NC(=O)OC)C=C1,-5.423786357000001
HXHZCOASPJWXPP-UHFFFAOYSA-N,"8-Quinolinecarboxylic acid, 5-nitro-",O=C(O)c1ccc([N+](=O)[O-])c2cccnc12,c1cc2c(ccc(c2nc1)C(=O)O)[N+](=O)[O-],OC(=O)C=1C=CC(=C2C1N=CC=C2)[N+](=O)[O-],-3.1639999999999997
HXIHISRWARGVBG-UHFFFAOYSA-N,"2H-Pyran-5-carboxylic acid, 2-oxo-, ethyl ester",CCOC(=O)c1ccc(=O)oc1,CCOC(=O)c1ccc(=O)oc1,C1(=COC(=O)C=C1)C(=O)OCC,-0.9978
HXIQYSLFEXIOAV-UHFFFAOYSA-N,2-tert-butyl-4-[(5-tert-butyl-4-hydroxy-2-methylphenyl)sulfanyl]-5-methylphenol,Cc1cc(O)c(C(C)(C)C)cc1Sc1cc(C(C)(C)C)c(O)cc1C,Cc1cc(c(cc1Sc2cc(c(cc2C)O)C(C)(C)C)C(C)(C)C)O,CC=1C=C(C(=CC1SC=2C=C(C(=CC2C)O)C(C)(C)C)C(C)(C)C)O,-7.112033162
HXIXMVAGDJFNCW-UHFFFAOYSA-N,,COC(=O)CC(NC(=O)C(CCS(C)(=O)=O)NC(=O)Cc1cc(OC)c2nc(Nc3ccccc3)oc2c1)c1ccc2c(c1)OCO2,COc1cc(cc2c1nc(o2)Nc3ccccc3)CC(=O)NC(CCS(=O)(=O)C)C(=O)NC(CC(=O)OC)c4ccc5c(c4)OCO5,COC(=O)CC(NC(=O)C(CCS(=O)(=O)C)NC(=O)CC=1C=C(C=2N=C(OC2C1)NC=3C=CC=CC3)OC)C=4C=CC5=C(C4)OCO5,-6.920818799999999
HXJKWPGVENNMCC-UHFFFAOYSA-N,,CCc1cc(OC)c(CC(C)N)cc1OC,CCc1cc(c(cc1OC)CC(C)N)OC,COC1=CC(=C(C=C1CC(N)C)OC)CC,0.8668
HXKNIUQWEPWWTJ-UHFFFAOYSA-N,,COc1cc2c(Nc3ncc(CNS(=O)(=O)c4cccc(F)c4)s3)ncnc2cc1OCCCN1CCCC(O)C1,COc1cc2c(cc1OCCCN3CCCC(C3)O)ncnc2Nc4ncc(s4)CNS(=O)(=O)c5cccc(c5)F,COC=1C=C2C(=NC=NC2=CC1OCCCN3CCCC(C3)O)NC4=NC=C(S4)CNS(=O)(=O)C=5C=CC=C(C5)F,-4.3477537
HXLAFSUPPDYFEO-UHFFFAOYSA-N,bevantolol,COc1ccc(CCNCC(O)COc2cccc(C)c2)cc1OC,Cc1cccc(c1)OCC(CNCCc2ccc(c(c2)OC)OC)O,CC1=CC(=CC=C1)OCC(CNCCC2=CC(=C(C=C2)OC)OC)O,-3.272834717
HXLPOATUNIVYFE-UHFFFAOYSA-O,,CC(=O)Nc1c(C)c2c(O)n(-c3ccc(C(F)(F)F)cc3)n[n+]2c2ccccc12,Cc1c(c2ccccc2[n+]3c1c(n(n3)c4ccc(cc4)C(F)(F)F)O)NC(=O)C,CC(=O)NC1=C(C2=C(N(N=[N+]2C3=C1C=CC=C3)C=4C=CC(=CC4)C(F)(F)F)O)C,-6.2240528
HXNFUBHNUDHIGC-UHFFFAOYSA-N,Alloxanthin,O=c1nc2[nH][nH]cc-2c(=O)[nH]1,c1c-2c(=O)[nH]c(=O)nc2[nH][nH]1,O=C1NC(=O)N=C2NNC=C12,-1.99
HXNJMXAYTVQMJT-UHFFFAOYSA-N,,O=S1(=O)Nc2ccccc2-c2ccccc21,c1ccc2c(c1)-c3ccccc3S(=O)(=O)N2,O=S1(=O)NC=2C=CC=CC2C3=C1C=CC=C3,-2.4317982999999996
HXPZLYXFFSKHJA-UHFFFAOYSA-N,"(4S,4aS,5aS,6S,12aR)-7-chloro-4-(dimethylamino)-1,6,10,11,12a-pentahydroxy-3,12-dioxo-3,4,4a,5,5a,6,12,12a-octahydrotetracene-2-carboxamide hydrochloride",CN(C)[C@@H]1C(=O)/C(=C(\N)O)C(=O)[C@@]2(O)C(=O)C3=C(O)c4c(O)ccc(Cl)c4[C@@H](O)[C@H]3C[C@@H]12,CN(C)[C@H]1[C@@H]2C[C@@H]3[C@@H](c4c(ccc(c4C(=C3C(=O)[C@@]2(C(=O)/C(=C(/N)\O)/C1=O)O)O)O)Cl)O,CN(C)[C@H]1[C@@H]2C[C@@H]3[C@@H](C=4C(=CC=C(C4C(=C3C(=O)[C@@]2(C(=O)/C(=C(/N)\O)/C1=O)O)O)O)Cl)O,-1.046950826
HXQPUEQDBSPXTE-UHFFFAOYSA-N,"4-heptanol, 2,6-dimethyl-",CC(C)CC(O)CC(C)C,CC(C)CC(CC(C)C)O,CC(C)CC(O)CC(C)C,-2.1590000000000003
HXRMCZBDTDCCOP-UHFFFAOYSA-N,,O=C(O)c1ncc(C(F)(F)F)cc1Cl,c1c(cnc(c1Cl)C(=O)O)C(F)(F)F,ClC1=CC(=CN=C1C(=O)O)C(F)(F)F,-2.512
HXTBTLJOXLOEAD-UHFFFAOYSA-N,,O=C(NC(CNS(=O)(=O)c1ccc2cc(Br)ccc2c1)C(=O)N1CCS(=O)(=O)CC1)C1CCN(c2ccncc2)CC1,c1cc(cc2c1cc(cc2)Br)S(=O)(=O)NCC(C(=O)N3CCS(=O)(=O)CC3)NC(=O)C4CCN(CC4)c5ccncc5,BrC=1C=CC=2C=C(C=CC2C1)S(=O)(=O)NCC(NC(=O)C3CCN(CC3)C=4C=CN=CC4)C(=O)N5CCS(=O)(=O)CC5,-3.8204636
HXVJVKGJKZJFKD-UHFFFAOYSA-N,Tetracaine,CN(C)C1C(=O)/C(=C(\N)O)C(=O)C2(O)C(=O)C3=C(O)C4C(O)CCCC4C(C)(O)C3CC12,CC1(C2CCCC(C2C(=C3C1CC4C(C(=O)/C(=C(\N)/O)/C(=O)C4(C3=O)O)N(C)C)O)O)O,CC1(C2CC3C(C(=O)/C(=C(\N)/O)/C(=O)C3(C(=O)C2=C(C4C1CCCC4O)O)O)N(C)C)O,-3.011
HXVSFCSAFIGCFU-UHFFFAOYSA-N,,Cc1cnc(Nc2ccc(C(=O)NCCCn3ccnc3)cc2)nc1Nc1ccccc1,Cc1cnc(nc1Nc2ccccc2)Nc3ccc(cc3)C(=O)NCCCn4ccnc4,CC=1C=NC(=NC1NC=2C=CC=CC2)NC=3C=CC(=CC3)C(=O)NCCCN4C=CN=C4,-5.2006595
HXXFSFRBOHSIMQ-UHFFFAOYSA-N,a-Glucose-1-phosphate,O=P(O)(O)OC1OC(CO)C(O)C(O)C1O,C(C1C(C(C(C(O1)OP(=O)(O)O)O)O)O)O,OCC1OC(C(C(C1O)O)O)OP(=O)(O)O,0.5848
HXXMONHYPKNZHE-UHFFFAOYSA-N,"2-Naphthalenesulfonic acid, 4-amino-",Nc1cc(S(=O)(=O)O)cc2ccccc12,c1ccc2c(c1)cc(cc2N)S(=O)(=O)O,NC1=CC(=CC2=C1C=CC=C2)S(=O)(=O)O,-2.34
HXXOOSWHCMYQQV-UHFFFAOYSA-N,"2-[(E)-2-(4-nitrophenyl)diazen-1-yl]-3-oxo-N-(2-oxo-2,3-dihydro-1H-1,3-benzodiazol-5-yl)butanamide",CC(=O)C(/N=N/c1ccc([N+](=O)[O-])cc1)C(=O)Nc1ccc2[nH]c(=O)[nH]c2c1,CC(=O)C(C(=O)Nc1ccc2c(c1)[nH]c(=O)[nH]2)/N=N/c3ccc(cc3)[N+](=O)[O-],CC(=O)C(/N=N/C=1C=CC(=CC1)[N+](=O)[O-])C(=O)NC=2C=CC=3NC(=O)NC3C2,-7.5257701710000005
HXXQJEUEICLLLJ-UHFFFAOYSA-N,"6-Pteridinecarboxylic acid, 1,2,3,4-tetrahydro-7",Cn1c(=O)c2nc(C(=O)O)c(=O)[nH]c2n(C)c1=O,Cn1c2c(c(=O)n(c1=O)C)nc(c(=O)[nH]2)C(=O)O,O=C1N(C(=O)C2=C(N1C)NC(=O)C(=N2)C(=O)O)C,-2.323
HXZRLUTUNSQNCG-UHFFFAOYSA-N,1-[3-(2-oxoazepane-1-carbonyl)benzoyl]azepan-2-one,O=C1CCCCCN1C(=O)c1cccc(C(=O)N2CCCCCC2=O)c1,c1cc(cc(c1)C(=O)N2CCCCCC2=O)C(=O)N3CCCCCC3=O,O=C1CCCCCN1C(=O)C=2C=CC=C(C2)C(=O)N3CCCCCC3=O,-3.958173098
HYAFETHFCAUJAY-UHFFFAOYSA-N,pioglitazone hydrochloride,CCc1ccc(CCOc2ccc(CC3SC(=O)NC3=O)cc2)nc1,CCc1ccc(nc1)CCOc2ccc(cc2)CC3C(=O)NC(=O)S3,CCC=1C=CC(=NC1)CCOC=2C=CC(=CC2)CC3SC(=O)NC3=O,-5.072787853
HYBCPKCAHCAFSQ-UHFFFAOYSA-N,,CN(C)CCNS(=O)(=O)c1ccc(Nc2nccc(-c3cnc4ccccn34)n2)cc1,CN(C)CCNS(=O)(=O)c1ccc(cc1)Nc2nccc(n2)c3cnc4n3cccc4,CN(C)CCNS(=O)(=O)C=1C=CC(=CC1)NC=2N=CC=C(N2)C3=CN=C4N3C=CC=C4,-4.5086383
HYCZDWGCJOEHBO-UHFFFAOYSA-N,2-Pteridinamine,Nc1ncc2nccnc2n1,c1cnc2c(n1)cnc(n2)N,NC=1N=CC=2N=CC=NC2N1,-2.298
HYDYEUKNONPEFM-UHFFFAOYSA-N,4-(3-PHENYLUREIDO)PHENYL  ACETATE;  Acetic acid 4-(3-phenylureido)phenyl ester,CC(=O)Oc1ccc(NC(=O)Nc2ccccc2)cc1,CC(=O)Oc1ccc(cc1)NC(=O)Nc2ccccc2,CC(=O)OC1=CC=C(C=C1)NC(=O)NC2=CC=CC=C2,-4.44
HYHGNKJVAPURSC-UHFFFAOYSA-N,"N-Hydroxy-3,5-dimethoxy-n-(2-methylphenyl)benzamide",COc1cc(OC)cc(C(=O)N(O)c2ccccc2C)c1,Cc1ccccc1N(C(=O)c2cc(cc(c2)OC)OC)O,COC1=CC(=CC(=C1)C(=O)N(O)C2=C(C=CC=C2)C)OC,-3.6475
HYHIJLYQTCYSKX-UHFFFAOYSA-N,,CC1CN(C(C)CO)C(=O)CCCn2cc(nn2)COC1CN(C)C(=O)Nc1ccccc1,CC1CN(C(=O)CCCn2cc(nn2)COC1CN(C)C(=O)Nc3ccccc3)C(C)CO,CC(CO)N1CC(C(OCC2=CN(N=N2)CCCC1=O)CN(C)C(=O)NC3=CC=CC=C3)C,-4.0
HYHLJGCPJKQKDK-UHFFFAOYSA-N,,N=C(N)c1ccc2cccc(Nc3ccccn3)c2c1,c1ccnc(c1)Nc2cccc3c2cc(cc3)C(=N)N,NC(=N)C=1C=CC=2C=CC=C(C2C1)NC=3C=CC=CN3,-3.853872
HYIMSNHJOBLJNT-UHFFFAOYSA-N,Nifedipine,COC(=O)C1=C(C)NC(C)=C(C(=O)OC)C1c1ccccc1[N+](=O)[O-],CC1=C(C(C(=C(N1)C)C(=O)OC)c2ccccc2[N+](=O)[O-])C(=O)OC,O=[N+]([O-])C=1C(=CC=CC1)C2C(=C(NC(=C2C(=O)OC)C)C)C(=O)OC,-4.76
HYJAEWLBIOBJOM-UHFFFAOYSA-N,,CNC(=O)C(C)(C)Oc1ccccc1Oc1ccc(Nc2c(C#N)cnc3ccc(OC)cc23)cc1,CC(C)(C(=O)NC)Oc1ccccc1Oc2ccc(cc2)Nc3c4cc(ccc4ncc3C#N)OC,CNC(=O)C(C)(C)OC=1C=CC=CC1OC=2C=CC(=CC2)NC=3C(=CN=C4C3C=C(C=C4)OC)C#N,-6.522878700000001
HYJSGOXICXYZGS-UHFFFAOYSA-N,benazolin; (4-chloro-2-oxobenzothiazol-3-yl)acetic acid,O=C(O)Cn1c(=O)sc2cccc(Cl)c21,c1cc2c(c(c1)Cl)n(c(=O)s2)CC(=O)O,OC(=O)CN1C(=O)SC2=C1C(=CC=C2)Cl,-2.61
HYNUALIQBHEXBP-UHFFFAOYSA-N,,CC(C)C(NC(=O)Cn1c(-c2ccccc2)ccc(NS(=O)(=O)c2ccc(Br)cc2)c1=O)C(=O)C(F)(F)F,CC(C)C(C(=O)C(F)(F)F)NC(=O)Cn1c(ccc(c1=O)NS(=O)(=O)c2ccc(cc2)Br)c3ccccc3,CC(C)C(NC(=O)CN1C(=CC=C(C1=O)NS(=O)(=O)C=2C=CC(=CC2)Br)C=3C=CC=CC3)C(=O)C(F)(F)F,-5.1191864
HYOJEGOTUCHUIR-UHFFFAOYSA-N,,CCn1c2ccccc2c2cc(NC(=O)N3CCC(C(=O)N4CCOCC4)CC3)ccc21,CCn1c2ccccc2c3c1ccc(c3)NC(=O)N4CCC(CC4)C(=O)N5CCOCC5,CCN1C=2C=CC=CC2C3=C1C=CC(=C3)NC(=O)N4CCC(CC4)C(=O)N5CCOCC5,-3.8860566
HYOLQGVNMQNERE-UHFFFAOYSA-N,,CN(C)CCSc1nc2ccccc2cc1-c1ccccc1,CN(C)CCSc1c(cc2ccccc2n1)c3ccccc3,CN(C)CCSC=1N=C2C=CC=CC2=CC1C=3C=CC=CC3,-3.9208187999999993
HYPKGPVDQYUOSV-UHFFFAOYSA-N,2-nitro-5-phenylphenol,O=[N+]([O-])c1ccc(-c2ccccc2)cc1O,c1ccc(cc1)c2ccc(c(c2)O)[N+](=O)[O-],OC=1C=C(C=CC1[N+](=O)[O-])C=2C=CC=CC2,-3.8560000000000003
HYPPXZBJBPSRLK-UHFFFAOYSA-N,Diphenoxylate,CCOC(=O)C1(c2ccccc2)CCN(CCC(C#N)(c2ccccc2)c2ccccc2)CC1,CCOC(=O)C1(CCN(CC1)CCC(C#N)(c2ccccc2)c3ccccc3)c4ccccc4,C1=CC=CC(=C1)C2(CCN(CC2)CCC(C#N)(C3=CC=CC=C3)C4=CC=CC=C4)C(=O)OCC,-2.753
HYPRUQJUBWRVEM-UHFFFAOYSA-N,Cyclopentyl-5-spirobarbituric acid,O=C1NC(=O)C2(CCCC2)C(=O)N1,C1CCC2(C1)C(=O)NC(=O)NC2=O,O=C1NC(=O)C2(CCCC2)C(=O)N1,-2.349
HYPUCPMYDLRLLS-UHFFFAOYSA-N,"Hydrazinecarboxamide, 2-[3-[5-nitro-2-furanyl)-2",NC(=O)N/N=C/C=C/c1ccc([N+](=O)[O-])o1,c1cc(oc1/C=C/C=N/NC(=O)N)[N+](=O)[O-],O=C(N)N/N=C/C=C/C=1OC(=CC1)[N+](=O)[O-],-3.1439999999999997
HYQASEVIBPSPMK-UHFFFAOYSA-N,12-[(2-methylprop-2-enoyl)oxy]dodecyl 2-methylprop-2-enoate,C=C(C)C(=O)OCCCCCCCCCCCCOC(=O)C(=C)C,CC(=C)C(=O)OCCCCCCCCCCCCOC(=O)C(=C)C,CC(=C)C(=O)OCCCCCCCCCCCCOC(=O)C(=C)C,-7.484110149
HYQVJTPIWPMTLK-UHFFFAOYSA-N,"1,4-Cyclohexanediol, 1,4-dimethyl-,",CC1(O)CCC(C)(O)CC1,CC1(CCC(CC1)(C)O)O,C1(CCC(CC1)(O)C)(O)C,-0.615
HYVGFUIWHXLVNV-UHFFFAOYSA-N,"ETHANOL, 2-(ETHYLPHENYLAMINO)-",CCN(CCO)c1ccccc1,CCN(CCO)c1ccccc1,N(C=1C=CC=CC1)(CCO)CC,-1.91705
HYVWIQDYBVKITD-UHFFFAOYSA-N,"tolylfluanid;  n-dichlorofluoromethylthio-n',n'-dimethyl-n-4-tolylsulfamide",Cc1ccc(N(SC(F)(Cl)Cl)S(=O)(=O)N(C)C)cc1,Cc1ccc(cc1)N(SC(F)(Cl)Cl)S(=O)(=O)N(C)C,S(=O)(=O)(N(SC(F)(Cl)Cl)C1=CC=C(C=C1)C)N(C)C,-5.5864
HYWYRSMBCFDLJT-UHFFFAOYSA-N,NIMESULIDE;  4-Nitro-2-phenoxymethanesulfonanilide,CS(=O)(=O)Nc1ccc([N+](=O)[O-])cc1Oc1ccccc1,CS(=O)(=O)Nc1ccc(cc1Oc2ccccc2)[N+](=O)[O-],S(=O)(=O)(NC=1C(=CC(=CC1)[N+](=O)[O-])OC=2C=CC=CC2)C,-4.489
HYYBABOKPJLUIN-UHFFFAOYSA-N,Mefenamic_Acid,Cc1cccc(Nc2ccccc2C(=O)O)c1C,Cc1cccc(c1C)Nc2ccccc2C(=O)O,OC(=O)C=1C=CC=CC1NC=2C(=C(C=CC2)C)C,-4.081504664
HYYOPSIKJXWRID-UHFFFAOYSA-N,5-nitrothiophene-2-carbohydrazide,NNC(=O)c1ccc([N+](=O)[O-])s1,c1cc(sc1C(=O)NN)[N+](=O)[O-],C1=C(SC(=C1)[N+](=O)[O-])C(=O)NN,-1.9705
HYZQKSBAKZLJFT-UHFFFAOYSA-N,,COc1ccc(Oc2nc(Nc3ccc(S(N)(=O)=O)cc3)ncc2Cl)cc1,COc1ccc(cc1)Oc2c(cnc(n2)Nc3ccc(cc3)S(=O)(=O)N)Cl,COC=1C=CC(=CC1)OC=2N=C(N=CC2Cl)NC=3C=CC(=CC3)S(=O)(=O)N,-6.080921900000001
HZAZHUIRQDNEJG-UHFFFAOYSA-N,,COc1cc2c(Nc3ccc(OCc4cccc(Cl)c4)nc3)ncnc2cc1OCC(O)CNCC1CC1,COc1cc2c(cc1OCC(CNCC3CC3)O)ncnc2Nc4ccc(nc4)OCc5cccc(c5)Cl,COC=1C=C2C(=NC=NC2=CC1OCC(O)CNCC3CC3)NC=4C=CC(=NC4)OCC=5C=CC=C(C5)Cl,-5.6777807000000005
HZDIJTXDRLNTIS-UHFFFAOYSA-N,Butenachlor,C/C=C\COCN(C(=O)CCl)c1c(CC)cccc1CC,CCc1cccc(c1N(COC/C=C\C)C(=O)CCl)CC,O=C(N(C1=C(C=CC=C1CC)CC)COC/C=C/C)CCl,-4.029
HZFMNTQRYXSCSO-UHFFFAOYSA-N,,NS(=O)(=O)c1ccc(C#Cc2cc3ccccc3o2)cc1,c1ccc2c(c1)cc(o2)C#Cc3ccc(cc3)S(=O)(=O)N,NS(=O)(=O)C=1C=CC(=CC1)C#CC2=CC=3C=CC=CC3O2,-5.9469216
HZGIPVAKCHJYGD-UHFFFAOYSA-N,,O=C(O)CC(CC(=O)c1cccc(NC(=O)Cc2ccc3nc(Nc4ccccc4)oc3c2)c1)c1ccc2c(c1)OCO2,c1ccc(cc1)Nc2nc3ccc(cc3o2)CC(=O)Nc4cccc(c4)C(=O)CC(CC(=O)O)c5ccc6c(c5)OCO6,OC(=O)CC(CC(=O)C=1C=CC=C(C1)NC(=O)CC=2C=CC=3N=C(OC3C2)NC=4C=CC=CC4)C=5C=CC6=C(C5)OCO6,-4.1307683
HZICBKDUOSCVSH-UHFFFAOYSA-N,,c1ccc(-c2[nH]nc3c2CCCC3)cc1,c1ccc(cc1)c2c3c(n[nH]2)CCCC3,C1CCC=2C(=NNC2C1)C=3C=CC=CC3,-3.83889035
HZJKXKUJVSEEFU-UHFFFAOYSA-N,MYCLOBUTANIL,CCCCC(C#N)(Cn1cncn1)c1ccc(Cl)cc1,CCCCC(Cn1cncn1)(C#N)c2ccc(cc2)Cl,CCCCC(CN1C=NC=N1)(C#N)C=2C=CC(=CC2)Cl,-3.3080000000000003
HZKCDBKRNMDOJB-UHFFFAOYSA-N,N1-(2-NITROPHENYL)-2-METHYLSULFANILAMIDE;  2-Nitro-1-(4-amino-2-methylphenylsulfonamido)benzene,Cc1cc(N)ccc1S(=O)(=O)Nc1ccccc1[N+](=O)[O-],Cc1cc(ccc1S(=O)(=O)Nc2ccccc2[N+](=O)[O-])N,CC1=C(C=CC(=C1)N)S(=O)(=O)NC2=C(C=CC=C2)[N+](=O)[O-],-4.51
HZKGTRUEBFRMNO-UHFFFAOYSA-N,"Benzenemethanol, 3,4,5-trichloro-",OCc1cc(Cl)c(Cl)c(Cl)c1,c1c(cc(c(c1Cl)Cl)Cl)CO,OCC=1C=C(C(=C(C1)Cl)Cl)Cl,-3.0949
HZLBMAGUNJLFMZ-UHFFFAOYSA-N,,NC(=O)c1ccc(Nc2ccc3c(c2)c2ccccc2n3CC(F)(F)F)nn1,c1ccc2c(c1)c3cc(ccc3n2CC(F)(F)F)Nc4ccc(nn4)C(=O)N,NC(=O)C=1C=CC(=NN1)NC=2C=CC=3N(C=4C=CC=CC4C3C2)CC(F)(F)F,-6.4317983
HZMKMSYGVTVKSN-UHFFFAOYSA-N,"Boc-Phe-His-Sta-Leu-NH-CH2CH2-CH(NH2)-COOH, Analog 16)",CC(C)CC(NC(=O)CC(O)C(CC(C)C)NC(=O)C(Cc1c[nH]cn1)NC(=O)C(Cc1ccccc1)NC(=O)OC(C)(C)C)C(=O)NCCC(N)C(=O)O,CC(C)CC(C(CC(=O)NC(CC(C)C)C(=O)NCCC(C(=O)O)N)O)NC(=O)C(Cc1c[nH]cn1)NC(=O)C(Cc2ccccc2)NC(=O)OC(C)(C)C,CC(C)CC(NC(=O)C(CC1=CNC=N1)NC(=O)C(CC2=CC=CC=C2)NC(=O)OC(C)(C)C)C(O)CC(=O)NC(CC(C)C)C(=O)NCCC(N)C(=O)O,-2.22
HZPKNSYIDSNZKW-UHFFFAOYSA-N,Ethyl 2-methylpentanoate,CCCC(C)C(=O)OCC,CCCC(C)C(=O)OCC,CCCC(C)C(=O)OCC,-2.489845271
HZQDCMWJEBCWBR-UHFFFAOYSA-N,mizoribine,NC(=O)c1ncn([C@@H]2O[C@H](CO)[C@@H](O)[C@H]2O)c1O,c1nc(c(n1[C@H]2[C@@H]([C@@H]([C@H](O2)CO)O)O)O)C(=O)N,C1=NC(=C(N1[C@H]2[C@@H]([C@@H]([C@H](O2)CO)O)O)O)C(=O)N,-0.70609833
HZRSNVGNWUDEFX-UHFFFAOYSA-N,,COC(=O)N(OC)c1ccccc1COc1ccn(-c2ccc(Cl)cc2)n1,COC(=O)N(c1ccccc1COc2ccn(n2)c3ccc(cc3)Cl)OC,O=C(OC)N(OC)C1=CC=CC=C1COC2=NN(C=C2)C3=CC=C(C=C3)Cl,-5.31
HZSFDBKBUGUMOD-UHFFFAOYSA-N,"2,4,6(1H,3H,5H)-Pyrimidinetrione, 1-(2,3-dihydro",CCC1(c2ccccc2)C(=O)NC(=O)N(CC(O)CO)C1=O,CCC1(C(=O)NC(=O)N(C1=O)CC(CO)O)c2ccccc2,CCC1(C(=O)NC(=O)N(C1=O)CC(O)CO)C=2C=CC=CC2,-1.7872
HZSZHDDXZPDDFJ-UHFFFAOYSA-N,,COc1cc2c(Nc3ccc(NC(=O)c4ccccc4)cc3)ncnc2cc1OCCNCC1CCCO1,COc1cc2c(cc1OCCNCC3CCCO3)ncnc2Nc4ccc(cc4)NC(=O)c5ccccc5,COC=1C=C2C(=NC=NC2=CC1OCCNCC3CCCO3)NC=4C=CC(=CC4)NC(=O)C=5C=CC=CC5,-4.040958600000001
HZTMGWSBSDLALI-UHFFFAOYSA-N,Dimorpholamine,CCCCN(CCN(CCCC)C(=O)N1CCOCC1)C(=O)N1CCOCC1,CCCCN(CCN(CCCC)C(=O)N1CCOCC1)C(=O)N2CCOCC2,CCCCN(CCN(CCCC)C(=O)N1CCOCC1)C(=O)N2CCOCC2,0.0985
HZUBBVGKQQJUME-UHFFFAOYSA-N,Disperse blue polyether,Nc1ccc(O)c2c1C(=O)c1c(O)cc(Br)c(N)c1C2=O,c1cc(c2c(c1N)C(=O)c3c(cc(c(c3C2=O)N)Br)O)O,O=C1C=2C(=C(C=C(C2C(=O)C=3C1=C(C=CC3N)O)O)Br)N,-10.77
HZUDUMYMCSZNCX-UHFFFAOYSA-N,"Benzenamine, N-(4-imino-2,5-cyclohexadien-1-ylid",N=C1C=CC(=Nc2ccccc2)C=C1,c1ccc(cc1)N=C2C=CC(=N)C=C2,C1(=CC=CC=C1)N=C2C=CC(=N)C=C2,-1.7380000000000002
HZUFPFIMLKDSPD-UHFFFAOYSA-N,,Cc1ccc(NC(=O)c2ccnc(N3CCOCC3)c2)cc1NC(=O)c1ccc(CNCC(C)(C)CN(C)C)cc1,Cc1ccc(cc1NC(=O)c2ccc(cc2)CNCC(C)(C)CN(C)C)NC(=O)c3ccnc(c3)N4CCOCC4,CN(C)CC(C)(C)CNCC=1C=CC(=CC1)C(=O)NC=2C=C(C=CC2C)NC(=O)C=3C=CN=C(C3)N4CCOCC4,-2.7695511
HZZVJAQRINQKSD-UHFFFAOYSA-N,,O=C(O)C1/C(=C/CO)OC2CC(=O)N21,C1C2N(C1=O)C(/C(=C/CO)/O2)C(=O)O,N12C(/C(=C/CO)/OC1CC2=O)C(=O)O,0.1779
IAFBRPFISOTXSO-UHFFFAOYSA-N,"2-[(E)-2-(2-chloro-4-{3-chloro-4-[(E)-2-{1-[(2,4-dimethylphenyl)carbamoyl]-2-oxopropyl}diazen-1-yl]phenyl}phenyl)diazen-1-yl]-N-(2,4-dimethylphenyl)-3-oxobutanamide",CC(=O)C(/N=N/c1ccc(-c2ccc(/N=N/C(C(C)=O)C(=O)Nc3ccc(C)cc3C)c(Cl)c2)cc1Cl)C(=O)Nc1ccc(C)cc1C,Cc1ccc(c(c1)C)NC(=O)C(C(=O)C)/N=N/c2ccc(cc2Cl)c3ccc(c(c3)Cl)/N=N/C(C(=O)C)C(=O)Nc4ccc(cc4C)C,CC(=O)C(/N=N/C=1C=CC(=CC1Cl)C=2C=CC(=C(C2)Cl)/N=N/C(C(=O)C)C(=O)NC=3C=CC(=CC3C)C)C(=O)NC=4C=CC(=CC4C)C,-9.292005182999999
IAHJVNSZPMIREM-UHFFFAOYSA-N,heptyl  4-aminobenzoate;  heptamben,CCCCCCCOC(=O)c1ccc(N)cc1,CCCCCCCOC(=O)c1ccc(cc1)N,CCCCCCCOC(=O)C=1C=CC(=CC1)N,-4.6
IAIHUHQCLTYTSF-UHFFFAOYSA-N,(+)-Fenchol,CC1(C)[C@@H](O)[C@@]2(C)CC[C@@H]1C2,CC1([C@@H]2CC[C@@](C2)([C@@H]1O)C)C,CC1([C@@H]2CC[C@@](C2)([C@@H]1O)C)C,-2.27
IAIWVQXQOWNYOU-UHFFFAOYSA-N,Nitrofurazone,NC(=O)N/N=C/c1ccc([N+](=O)[O-])o1,c1cc(oc1/C=N/NC(=O)N)[N+](=O)[O-],O=[N+]([O-])C=1OC(=CC1)/C=N/NC(=O)N,-2.92
IAJGJUIULLHXKT-UHFFFAOYSA-N,,COc1cc2c(Nc3cnc(NC(=O)c4ccccc4)nc3)ncnc2cc1OCC(O)CN1CCOCC1,COc1cc2c(cc1OCC(CN3CCOCC3)O)ncnc2Nc4cnc(nc4)NC(=O)c5ccccc5,COC=1C=C2C(=NC=NC2=CC1OCC(O)CN3CCOCC3)NC=4C=NC(=NC4)NC(=O)C=5C=CC=CC5,-5.2924298
IAJNXBNRYMEYAZ-UHFFFAOYSA-N,"ethyl 2-cyano-3,3-diphenylprop-2-enoate",CCOC(=O)C(C#N)=C(c1ccccc1)c1ccccc1,CCOC(=O)C(=C(c1ccccc1)c2ccccc2)C#N,CCOC(=O)C(=C(C=1C=CC=CC1)C=2C=CC=CC2)C#N,-7.744007943
IAJOBQBIJHVGMQ-UHFFFAOYSA-N,GLUFOSINATE-AMMONIUM,CP(=O)(O)CCC(N)C(=O)O,CP(=O)(CCC(C(=O)O)N)O,OC(=O)C(CCP(=O)(C)O)N,0.8397
IAKHMKGGTNLKSZ-UHFFFAOYSA-N,colchicine,COc1cc2c(c(OC)c1OC)-c1ccc(OC)c(=O)cc1[C@@H](NC(C)=O)CC2,CC(=O)N[C@H]1CCc2cc(c(c(c2-c3c1cc(=O)c(cc3)OC)OC)OC)OC,O(C1=C2C(=CC(=C1OC)OC)CCC(C=3C2=CC=C(C(=O)C3)OC)NC(=O)C)C,-0.9482
IAKOZHOLGAGEJT-UHFFFAOYSA-N,methoxychlor;  dmdt;  methoxy-ddt,COc1ccc(C(c2ccc(OC)cc2)C(Cl)(Cl)Cl)cc1,COc1ccc(cc1)C(c2ccc(cc2)OC)C(Cl)(Cl)Cl,ClC(Cl)(Cl)C(C=1C=CC(=CC1)OC)C=2C=CC(=CC2)OC,-6.589107
IALORYHODRVWKZ-UHFFFAOYSA-N,[2-(4-aminobenzenesulfonyl)ethoxy]sulfonic acid,Nc1ccc(S(=O)(=O)CCOS(=O)(=O)O)cc1,c1cc(ccc1N)S(=O)(=O)CCOS(=O)(=O)O,NC=1C=CC(=CC1)S(=O)(=O)CCOS(=O)(=O)O,-1.905059335
IALRSQMWHFKJJA-UHFFFAOYSA-N,4-METHYLNONANE,CCCCCC(C)CCC,CCCCCC(C)CCC,CCCCCC(C)CCC,-6.322
IAMKKRBEXIKTLA-UHFFFAOYSA-N,,O=S(=O)(c1ccc(OC(F)(F)F)cc1)N1CCN(c2ncnc3sccc23)CC1,c1cc(ccc1OC(F)(F)F)S(=O)(=O)N2CCN(CC2)c3c4ccsc4ncn3,FC(F)(F)OC=1C=CC(=CC1)S(=O)(=O)N2CCN(CC2)C=3N=CN=C4C3C=CS4,-5.4202164
IANUJLZYFUDJIH-UHFFFAOYSA-N,Fluthiamide,CC(C)N(C(=O)COc1nnc(C(F)(F)F)s1)c1ccc(F)cc1,CC(C)N(c1ccc(cc1)F)C(=O)COc2nnc(s2)C(F)(F)F,CC(C)N(C(=O)COC=1SC(=NN1)C(F)(F)F)C=2C=CC(=CC2)F,-3.81205
IAOKPZIEZYJMKM-UHFFFAOYSA-N,"3H-Naphtho[2,1-b]pyran-1-acetic acid, 3-oxo-",O=C(O)Cc1cc(=O)oc2ccc3ccccc3c12,c1ccc2c(c1)ccc3c2c(cc(=O)o3)CC(=O)O,C=1(C=2C(=CC=C3C2C=CC=C3)OC(=O)C1)CC(=O)O,-3.175
IAPINBHDXXEJHB-UHFFFAOYSA-N,,Cc1cc(Nc2nc(Nc3ccc(OCC(O)CN(C)C)cc3)ncc2Br)n[nH]1,Cc1cc(n[nH]1)Nc2c(cnc(n2)Nc3ccc(cc3)OCC(CN(C)C)O)Br,CN(C)CC(O)COC=1C=CC(=CC1)NC=2N=CC(=C(N2)NC=3C=C(NN3)C)Br,-3.7212464
IAPMZKRZMYQZSW-UHFFFAOYSA-N,"(4-methoxy-2,2-dimethyl-3a,4,6,6a-tetrahydrofuro[3,4-d][1,3]dioxol-6-yl)methyl 4-methylbenzenesulfonate",COC1OC(COS(=O)(=O)c2ccc(C)cc2)C2OC(C)(C)OC12,Cc1ccc(cc1)S(=O)(=O)OCC2C3C(C(O2)OC)OC(O3)(C)C,COC1OC(C2C1OC(O2)(C)C)COS(=O)(=O)C=3C=CC(=CC3)C,-4.156221267
IAQCIIPHLIDEOY-UHFFFAOYSA-N,,CNc1cc2ncc(C#N)c(Nc3ccc(Oc4ccccc4OC(C)(C)C(=O)NCCc4cccnc4)cc3)c2cc1OC,CC(C)(C(=O)NCCc1cccnc1)Oc2ccccc2Oc3ccc(cc3)Nc4c5cc(c(cc5ncc4C#N)NC)OC,CNC=1C=C2N=CC(=C(C2=CC1OC)NC=3C=CC(=CC3)OC=4C=CC=CC4OC(C)(C)C(=O)NCCC=5C=CC=NC5)C#N,-5.7746907
IAQLIMBICLNHRV-UHFFFAOYSA-N,,CCn1c2ccccc2c2cc(NC(=O)N(C)Cc3ccccc3)ccc21,CCn1c2ccccc2c3c1ccc(c3)NC(=O)N(C)Cc4ccccc4,CCN1C=2C=CC=CC2C3=C1C=CC(=C3)NC(=O)N(C)CC=4C=CC=CC4,-5.920818799999999
IARGFZHXWHLMNG-UHFFFAOYSA-N,,COCCNS(=O)(=O)c1ccc(Nc2nccc(-c3cnc4ccccn34)n2)cc1,COCCNS(=O)(=O)c1ccc(cc1)Nc2nccc(n2)c3cnc4n3cccc4,COCCNS(=O)(=O)C=1C=CC(=CC1)NC=2N=CC=C(N2)C3=CN=C4N3C=CC=C4,-6.1804561
IARGYQCWGKDMGY-UHFFFAOYSA-N,,N#Cc1cccc(C(=O)NCCS(=O)(=O)c2ccccc2F)c1,c1ccc(c(c1)F)S(=O)(=O)CCNC(=O)c2cccc(c2)C#N,FC=1C=CC=CC1S(=O)(=O)CCNC(=O)C=2C=CC=C(C2)C#N,-3.9586072999999997
IASXKKPJMNDKDN-UHFFFAOYSA-N,,COc1ccc(C2(c3ccc(OC)cc3)C(=O)NC(=O)NC2=O)cc1,COc1ccc(cc1)C2(C(=O)NC(=O)NC2=O)c3ccc(cc3)OC,COC=1C=CC(=CC1)C2(C(=O)NC(=O)NC2=O)C=3C=CC(=CC3)OC,-3.8239087
IASZLRMIXCBQSM-UHFFFAOYSA-N,,CCCSc1nc(N)c2ncn(C3OC(/C=C/C(N)=O)C(O)C3O)c2n1,CCCSc1nc(c2c(n1)n(cn2)C3C(C(C(O3)/C=C/C(=O)N)O)O)N,CCCSC=1N=C2C(N=CN2C3OC(C(C3O)O)/C=C/C(=O)N)=C(N1)N,-3.8094193
IAUKWGFWINVWKS-UHFFFAOYSA-N,diisopropylnaphthalene,CC(C)c1ccc2ccccc2c1C(C)C,CC(C)c1ccc2ccccc2c1C(C)C,CC(C)C=1C=CC=2C=CC=CC2C1C(C)C,-6.23005681
IAVNKEHDVCFDBG-UHFFFAOYSA-N,,CCCN1CCC(Oc2cccc(C(=O)Nc3cc(NC(=O)c4ccnc(N5CCOCC5)c4)ccc3C)c2)CC1,CCCN1CCC(CC1)Oc2cccc(c2)C(=O)Nc3cc(ccc3C)NC(=O)c4ccnc(c4)N5CCOCC5,CCCN1CCC(CC1)OC=2C=CC=C(C2)C(=O)NC=3C=C(C=CC3C)NC(=O)C=4C=CN=C(C4)N5CCOCC5,-4.1804561
IAWYFQRAIGYURV-UHFFFAOYSA-N,"BENZENESULFONAMIDE, 3-FLUORO-4-[(2-HYDROXYETHYL)",NS(=O)(=O)c1ccc(S(=O)(=O)CCO)c(F)c1,c1cc(c(cc1S(=O)(=O)N)F)S(=O)(=O)CCO,S(=O)(=O)(C=1C=C(C(=CC1)S(=O)(=O)CCO)F)N,-1.9340000000000002
IAXFZZHBFXRZMT-UHFFFAOYSA-N,2-[3-(2-Hydroxyethoxy)phenoxy]ethanol,OCCOc1cccc(OCCO)c1,c1cc(cc(c1)OCCO)OCCO,OCCOC1=CC=CC(=C1)OCCO,-1.0190000000000001