inchikey,Name,SMILES_stand,SMILES,kekSmiles,logS
BMGQWWVMWDBQGC-UHFFFAOYSA-N,midostaurin,CO[C@@H]1[C@H](N(C)C(=O)c2ccccc2)C[C@H]2O[C@]1(C)n1c3ccccc3c3c4c(c5c6ccccc6n2c5c31)C(=O)NC4,C[C@@]12[C@@H]([C@@H](C[C@@H](O1)n3c4ccccc4c5c3c6n2c7ccccc7c6c8c5C(=O)NC8)N(C)C(=O)c9ccccc9)OC,C[C@@]12[C@@H]([C@@H](C[C@@H](O1)N3C4=CC=CC=C4C=5C3=C6N2C=7C(C6=C8C5C(=O)NC8)=CC=CC7)N(C)C(=O)C9=CC=CC=C9)OC,-5.756362211
BMIPMKQAAJKBKP-UHFFFAOYSA-N,"2,4,5-Trimethylaniline",Cc1cc(C)c(N)cc1C,Cc1cc(c(cc1C)N)C,CC=1C=C(C(=CC1C)N)C,-1.95495
BMKBXNMTWNYODF-UHFFFAOYSA-N,,COc1cc2c(Oc3ccc4[nH]c(C)cc4c3)ncnc2cc1OCCCN1CCCCC1,Cc1cc2cc(ccc2[nH]1)Oc3c4cc(c(cc4ncn3)OCCCN5CCCCC5)OC,COC=1C=C2C(=NC=NC2=CC1OCCCN3CCCCC3)OC=4C=CC=5NC(=CC5C4)C,-3.7614394
BMKDZUISNHGIBY-UHFFFAOYSA-N,dexrazoxane hydrochloride,C[C@@H](CN1CC(=O)NC(=O)C1)N1CC(=O)NC(=O)C1,C[C@@H](CN1CC(=O)NC(=O)C1)N2CC(=O)NC(=O)C2,C[C@@H](CN1CC(=O)NC(=O)C1)N2CC(=O)NC(=O)C2,-1.27
BMLIZLVNXIYGCK-UHFFFAOYSA-N,"monuron;  3-(4-chlorophenyl)-1,1-dimethylurea;  telvar",CN(C)C(=O)Nc1ccc(Cl)cc1,CN(C)C(=O)Nc1ccc(cc1)Cl,O=C(N(C)C)NC1=CC=C(C=C1)Cl,-2.89
BMNVNLVSSVPNDM-UHFFFAOYSA-N,,N#Cc1cccc(C(=O)NCCCCc2ccccc2)c1,c1ccc(cc1)CCCCNC(=O)c2cccc(c2)C#N,O=C(NCCCCC=1C=CC=CC1)C=2C=CC=C(C2)C#N,-4.5686362
BMOACRKLCOIODC-UHFFFAOYSA-N,"Propanoic acid, 3-butoxy-, butyl ester",CCCCOCCC(=O)OCCCC,CCCCOCCC(=O)OCCCC,CCCCOCCC(=O)OCCCC,-2.40295
BMOZSLDSSWSGRW-UHFFFAOYSA-N,,Cc1nnc(Sc2ccc(NC(=O)C(C)(O)C(F)(F)F)c(Cl)c2)s1,Cc1nnc(s1)Sc2ccc(c(c2)Cl)NC(=O)C(C)(C(F)(F)F)O,CC1=NN=C(S1)SC=2C=CC(=C(C2)Cl)NC(=O)C(C)(O)C(F)(F)F,-4.5086383
BMPDWHIDQYTSHX-UHFFFAOYSA-N,eslicarbazepine,NC(=O)N1c2ccccc2C[C@H](O)c2ccccc21,c1ccc2c(c1)C[C@@H](c3ccccc3N2C(=O)N)O,C1[C@@H](C2=CC=CC=C2N(C=3C1=CC=CC3)C(=O)N)O,-2.767081301
BMQSRZGLDSJRBO-UHFFFAOYSA-N,,CS(=O)(=O)CCC(NC(=O)Cc1ccc2nc(Nc3ccccc3)oc2c1)C(=O)NC(CC(=O)O)c1ccc2c(c1)OCO2,CS(=O)(=O)CCC(C(=O)NC(CC(=O)O)c1ccc2c(c1)OCO2)NC(=O)Cc3ccc4c(c3)oc(n4)Nc5ccccc5,CS(=O)(=O)CCC(NC(=O)CC=1C=CC=2N=C(OC2C1)NC=3C=CC=CC3)C(=O)NC(CC(=O)O)C=4C=CC5=C(C4)OCO5,-2.853872
BMRYPQYWSJESHA-UHFFFAOYSA-N,"Glycine, N-[N-(aminocarbonyl)glycyl]-",NC(=O)NCC(=O)NCC(=O)O,C(C(=O)NCC(=O)O)NC(=O)N,NC(=O)NCC(=O)NCC(=O)O,-0.8996
BMTAFVWTTFSTOG-UHFFFAOYSA-N,Butylate,CCSC(=O)N(CC(C)C)CC(C)C,CCSC(=O)N(CC(C)C)CC(C)C,O=C(SCC)N(CC(C)C)CC(C)C,-3.68
BMUKKTUHUDJSNZ-UHFFFAOYSA-N,Isoxsuprine,CC(COc1ccccc1)NC(C)C(O)c1ccc(O)cc1,CC(COc1ccccc1)NC(C)C(c2ccc(cc2)O)O,CC(COC1=CC=CC=C1)NC(C)C(O)C2=CC=C(C=C2)O,-1.53
BMURONZFJJPAOK-UHFFFAOYSA-N,3-CHLORODIPHENYL ETHER,Clc1cccc(Oc2ccccc2)c1,c1ccc(cc1)Oc2cccc(c2)Cl,ClC=1C=CC=C(C1)OC=2C=CC=CC2,-4.21085
BMWWTQTWFZOAKT-UHFFFAOYSA-N,,Cc1ccc(NC(=O)c2ccnc(N3CCOCC3)c2)cc1NC(=O)c1ccc(CNCCC2CCCN2C)cc1,Cc1ccc(cc1NC(=O)c2ccc(cc2)CNCCC3CCCN3C)NC(=O)c4ccnc(c4)N5CCOCC5,CN1CCCC1CCNCC=2C=CC(=CC2)C(=O)NC=3C=C(C=CC3C)NC(=O)C=4C=CN=C(C4)N5CCOCC5,-2.39794
BMZFPKUWWKQXIG-UHFFFAOYSA-N,,COC1(c2cccc(S(=O)(=O)c3ccc4c(ccc(=O)n4C)c3)c2)CCOC(C)C1,CC1CC(CCO1)(c2cccc(c2)S(=O)(=O)c3ccc4c(c3)ccc(=O)n4C)OC,COC1(CCOC(C1)C)C=2C=CC=C(C2)S(=O)(=O)C=3C=CC=4N(C(=O)C=CC4C3)C,-4.1059489000000005
BNAYNPKNDLTBTJ-UHFFFAOYSA-N,3-methyl-7-propan-2-ylbicyclo[2.2.2]oct-3-ene-6-carbaldehyde,CC1=C2CC(C=O)C(C1)C(C(C)C)C2,CC1=C2CC(C(C1)C(C2)C(C)C)C=O,CC(C)C1CC2=C(CC1C(C2)C=O)C,-3.8509271419999997
BNBSEAFANQAPGO-UHFFFAOYSA-N,"sodium 3-[2-(1,5-dioxonaphthalen-2-yl)hydrazinyl]-4-hydroxybenzenesulfonate",O=C1C=CC=C2C(=O)C(NNc3cc(S(=O)(=O)O)ccc3O)=CC=C12,c1cc(c(cc1S(=O)(=O)O)NNC2=CC=C3C(=O)C=CC=C3C2=O)O,OC=1C=CC(=CC1NNC2=CC=C3C(=O)C=CC=C3C2=O)S(=O)(=O)O,-0.901198002
BNEVROJYJXVARX-UHFFFAOYSA-N,,COc1cc2c(Nc3cnc(NC(=O)c4cccn4C)nc3)ncnc2cc1OCCCNC1CCCC1,Cn1cccc1C(=O)Nc2ncc(cn2)Nc3c4cc(c(cc4ncn3)OCCCNC5CCCC5)OC,COC=1C=C2C(=NC=NC2=CC1OCCCNC3CCCC3)NC=4C=NC(=NC4)NC(=O)C5=CC=CN5C,-2.9586072999999997
BNKALUJJUHDZDP-UHFFFAOYSA-N,,Fc1ccc(Nc2ncnc3nc(N4CCN(CCN5CCCC5)CC4)ncc23)cc1Cl,c1cc(c(cc1Nc2c3cnc(nc3ncn2)N4CCN(CC4)CCN5CCCC5)Cl)F,FC=1C=CC(=CC1Cl)NC=2N=CN=C3C2C=NC(=N3)N4CCN(CC4)CCN5CCCC5,-4.086186100000001
BNLLVTOBFDYPPF-UHFFFAOYSA-N,,COc1cc2c(Nc3ccc(NC(=O)c4ccccc4)cc3)ncnc2cc1OCC1CCNCC1,COc1cc2c(cc1OCC3CCNCC3)ncnc2Nc4ccc(cc4)NC(=O)c5ccccc5,COC=1C=C2C(=NC=NC2=CC1OCC3CCNCC3)NC=4C=CC(=CC4)NC(=O)C=5C=CC=CC5,-3.8239087
BNNCFFHUXXKQMF-UHFFFAOYSA-N,,CN(C(=O)NCCc1ccccc1)C1CCN(CCC(c2ccccc2)c2ccccc2)CC1,CN(C1CCN(CC1)CCC(c2ccccc2)c3ccccc3)C(=O)NCCc4ccccc4,CN(C1CCN(CC1)CCC(C=2C=CC=CC2)C=3C=CC=CC3)C(=O)NCCC=4C=CC=CC4,-3.8239087
BNNLFQMAGHWYDG-UHFFFAOYSA-N,,O=C(COc1cccc2cnccc12)Nc1ccc(Cl)cc1,c1cc2cnccc2c(c1)OCC(=O)Nc3ccc(cc3)Cl,ClC=1C=CC(=CC1)NC(=O)COC=2C=CC=C3C2C=CN=C3,-4.7447275
BNOUUNAFHCJIJD-UHFFFAOYSA-N,"Benzenepropanoic acid, .alpha.,beta.-dihydroxy-",O=C(O)C(O)C(O)c1ccccc1,c1ccc(cc1)C(C(C(=O)O)O)O,OC(C(O)C=1C=CC=CC1)C(=O)O,-0.72815
BNQDCRGUHNALGH-UHFFFAOYSA-N,benserazide,NC(CO)C(=O)NNCc1ccc(O)c(O)c1O,c1cc(c(c(c1CNNC(=O)C(CO)N)O)O)O,C1=CC(=C(C(=C1CNNC(=O)C(CO)N)O)O)O,-1.410338501
BNQRPLGZFADFGA-UHFFFAOYSA-N,benzyltriphenylphosphanium chloride,c1ccc(C[P+](c2ccccc2)(c2ccccc2)c2ccccc2)cc1,c1ccc(cc1)C[P+](c2ccccc2)(c3ccccc3)c4ccccc4,C(C=1C=CC=CC1)[P+](C=2C=CC=CC2)(C=3C=CC=CC3)C=4C=CC=CC4,-0.7188122809999999
BNQYXFAVUMPZFG-UHFFFAOYSA-N,"Pentanoic acid, 4-oxo-3-(phenylmethylene)-",CC(=O)/C(=C/c1ccccc1)CC(=O)O,CC(=O)/C(=C/c1ccccc1)/CC(=O)O,CC(=O)/C(=C/C=1C=CC=CC1)/CC(=O)O,-1.611
BNRNXUUZRGQAQC-UHFFFAOYSA-N,sildenafil citrate,CCCc1nn(C)c2c(=O)[nH]c(-c3cc(S(=O)(=O)N4CCN(C)CC4)ccc3OCC)nc12,CCCc1c2c(c(=O)[nH]c(n2)c3cc(ccc3OCC)S(=O)(=O)N4CCN(CC4)C)n(n1)C,CCCC1=NN(C2=C1N=C(NC2=O)C3=C(C=CC(=C3)S(=O)(=O)N4CCN(CC4)C)OCC)C,-2.279862411
BNSISOZXEDSBFY-UHFFFAOYSA-N,,COc1cc2c(Nc3cccc(-c4ccco4)c3)ncnc2cc1OCCCN1CCCC1,COc1cc2c(cc1OCCCN3CCCC3)ncnc2Nc4cccc(c4)c5ccco5,COC=1C=C2C(=NC=NC2=CC1OCCCN3CCCC3)NC=4C=CC=C(C4)C5=CC=CO5,-4.154902
BNTRCVCDIOMGSM-UHFFFAOYSA-N,,COc1ccccc1Nc1nc(Nc2ccc(OCC(O)CN(C)C)cc2)ncc1Br,CN(C)CC(COc1ccc(cc1)Nc2ncc(c(n2)Nc3ccccc3OC)Br)O,COC=1C=CC=CC1NC=2N=C(N=CC2Br)NC=3C=CC(=CC3)OCC(O)CN(C)C,-4.537602
BNUHAJGCKIQFGE-UHFFFAOYSA-N,p-Nitroanisole,COc1ccc([N+](=O)[O-])cc1,COc1ccc(cc1)[N+](=O)[O-],O=[N+]([O-])C=1C=CC(=CC1)OC,-2.41
BNWMUWHKFMZBIF-UHFFFAOYSA-N,,COc1cc2ncnc(Sc3ccc(F)c(Cl)c3)c2cc1OCCCN1CCOCC1,COc1cc2c(cc1OCCCN3CCOCC3)c(ncn2)Sc4ccc(c(c4)Cl)F,COC=1C=C2N=CN=C(C2=CC1OCCCN3CCOCC3)SC=4C=CC(=C(C4)Cl)F,-5.79588
BNXGKZOHZIUJEK-UHFFFAOYSA-N,,O=C(O)CC(COc1cccc(NC(=O)Cc2ccc3nc(Nc4ccccc4)oc3c2)c1)n1ccnc1,c1ccc(cc1)Nc2nc3ccc(cc3o2)CC(=O)Nc4cccc(c4)OCC(CC(=O)O)n5ccnc5,OC(=O)CC(COC=1C=CC=C(C1)NC(=O)CC=2C=CC=3N=C(OC3C2)NC=4C=CC=CC4)N5C=CN=C5,-3.1307682999999997
BNXNFRUOUZBOJC-UHFFFAOYSA-N,,N#Cc1cnc(Nc2ccc(S(=O)(=O)NCCc3ccccc3)cc2)nc1N,c1ccc(cc1)CCNS(=O)(=O)c2ccc(cc2)Nc3ncc(c(n3)N)C#N,NC=1N=C(N=CC1C#N)NC=2C=CC(=CC2)S(=O)(=O)NCCC=3C=CC=CC3,-6.537602
BNXSABDYGOUQQI-UHFFFAOYSA-N,3-hydroxy-2-methyl-1-phenylpyridin-4-one,Cc1c(O)c(=O)ccn1-c1ccccc1,Cc1c(c(=O)ccn1c2ccccc2)O,N1(C(=C(C(=O)C=C1)O)C)C2=CC=CC=C2,-2.0285
BNZYRKVSCLSXSJ-UHFFFAOYSA-N,PSICOFURANINE,Nc1ncnc2c1ncn2[C@]1(CO)O[C@H](CO)[C@@H](O)[C@H]1O,c1nc(c2c(n1)n(cn2)[C@]3([C@@H]([C@@H]([C@H](O3)CO)O)O)CO)N,NC=1N=CN=C2C1N=CN2[C@@]3(O[C@@H]([C@H]([C@H]3O)O)CO)CO,-1.57
BOAVLQJVKZPSFI-UHFFFAOYSA-N,,Cc1cc(Nc2ccc(Cl)cc2)nc(NC(=N)NC(C)C)n1,Cc1cc(nc(n1)NC(=N)NC(C)C)Nc2ccc(cc2)Cl,CC(C)NC(=N)NC=1N=C(C=C(N1)NC=2C=CC(=CC2)Cl)C,-3.2365720000000002
BOCJQSFSGAZAPQ-UHFFFAOYSA-N,,O=C1c2ccccc2C(=O)c2c(Cl)cccc21,c1ccc2c(c1)C(=O)c3cccc(c3C2=O)Cl,ClC=1C2=C(C=CC1)C(=O)C=3C(=CC=CC3)C2=O,-5.54
BOCUKUHCLICSIY-UHFFFAOYSA-N,cyclothiazide,NS(=O)(=O)c1cc2c(cc1Cl)NC(C1CC3C=CC1C3)NS2(=O)=O,c1c2c(cc(c1Cl)S(=O)(=O)N)S(=O)(=O)NC(N2)C3CC4CC3C=C4,C1C2CC(C1C=C2)C3NC4=CC(=C(C=C4S(=O)(=O)N3)S(=O)(=O)N)Cl,-3.143772926
BODRLKRKPXBDBN-UHFFFAOYSA-N,"3,5,5-trimethylhexan-1-ol",CC(CCO)CC(C)(C)C,CC(CCO)CC(C)(C)C,CC(CCO)CC(C)(C)C,-2.533539958
BOEGTKLJZSQCCD-UHFFFAOYSA-N,cefadroxil,CC1=C(C(=O)O)N2C(=O)[C@@H](NC(=O)[C@H](N)c3ccc(O)cc3)[C@H]2SC1,CC1=C(N2[C@@H]([C@@H](C2=O)NC(=O)[C@@H](c3ccc(cc3)O)N)SC1)C(=O)O,CC1=C(N2[C@@H]([C@@H](C2=O)NC(=O)[C@@H](C3=CC=C(C=C3)O)N)SC1)C(=O)O,-2.5603729719999997
BOFHKBLZOYVHSI-UHFFFAOYSA-N,crufomate; ruelene,CNP(=O)(OC)Oc1ccc(C(C)(C)C)cc1Cl,CC(C)(C)c1ccc(c(c1)Cl)OP(=O)(NC)OC,P(=O)(OC1=C(C=C(C=C1)C(C)(C)C)Cl)(NC)OC,-3.1639999999999997
BOFQWVMAQOTZIW-UHFFFAOYSA-N,deferasirox,O=C(O)c1ccc(-n2nc(-c3ccccc3O)nc2-c2ccccc2O)cc1,c1ccc(c(c1)c2nc(n(n2)c3ccc(cc3)C(=O)O)c4ccccc4O)O,C1=CC=C(C(=C1)C2=NN(C(=N2)C3=CC=CC=C3O)C4=CC=C(C=C4)C(=O)O)O,-3.970067797
BOFXVYGDIRCHEQ-UHFFFAOYSA-N,"?-D-Galactopyranosiduronic acid, methyl",COC1OC(C(=O)O)C(O)C(O)C1O,COC1C(C(C(C(O1)C(=O)O)O)O)O,C1(OC(C(C(C1O)O)O)OC)C(=O)O,0.013999999999999999
BOJWTAQWPVBIPG-UHFFFAOYSA-N,"Benzoic acid, 4-fluoro-3-nitro-",O=C(O)c1ccc(F)c([N+](=O)[O-])c1,c1cc(c(cc1C(=O)O)[N+](=O)[O-])F,OC(=O)C=1C=CC(=C(C1)[N+](=O)[O-])F,-1.5795
BOKGTLAJQHTOKE-UHFFFAOYSA-N,"naphthalene-1,5-diol",Oc1cccc2c(O)cccc12,c1cc2c(cccc2O)c(c1)O,OC=1C=CC=C2C1C=CC=C2O,-2.92
BOKQGQZBEUNHLV-UHFFFAOYSA-N,,O=C(NCCS(=O)(=O)Cc1c(F)cccc1Cl)c1cccc(F)c1,c1cc(cc(c1)F)C(=O)NCCS(=O)(=O)Cc2c(cccc2Cl)F,FC=1C=CC=C(C1)C(=O)NCCS(=O)(=O)CC=2C(=CC=CC2Cl)F,-4.3565473
BOLANQNHTGVOMY-UHFFFAOYSA-N,"1,3-diisothiocyanatobenzene",S=C=Nc1cccc(N=C=S)c1,c1cc(cc(c1)N=C=S)N=C=S,S=C=NC1=CC=CC(=C1)N=C=S,-4.7
BOLZFLOHOKWZEL-UHFFFAOYSA-N,,Cc1ncc(-c2ccnc(Nc3ccc(S(=O)(=O)NCC(C)(C)CO)cc3)n2)n1C,Cc1ncc(n1C)c2ccnc(n2)Nc3ccc(cc3)S(=O)(=O)NCC(C)(C)CO,CC1=NC=C(N1C)C=2C=CN=C(N2)NC=3C=CC(=CC3)S(=O)(=O)NCC(C)(C)CO,-5.1870866
BONZIMQVABSVAC-UHFFFAOYSA-N,,CCCCNC(=O)C1CCN(C(=O)Nc2ccc3c(c2)c2ccccc2n3CC)CC1,CCCCNC(=O)C1CCN(CC1)C(=O)Nc2ccc3c(c2)c4ccccc4n3CC,CCCCNC(=O)C1CCN(CC1)C(=O)NC=2C=CC=3N(C=4C=CC=CC4C3C2)CC,-6.4317983
BOPFVIXUEVMAGS-UHFFFAOYSA-N,,CC1Cc2ccccc2N1c1ccnc(Nc2ccc(OCC(O)CN(C)C)cc2)n1,CC1Cc2ccccc2N1c3ccnc(n3)Nc4ccc(cc4)OCC(CN(C)C)O,CC1CC=2C=CC=CC2N1C=3C=CN=C(N3)NC=4C=CC(=CC4)OCC(O)CN(C)C,-3.3372422
BOPMZMMZNQXLNL-UHFFFAOYSA-N,,O=CN(O)C(CS(=O)(=O)N1CCN(c2ccc(F)cc2)CC1)c1ccc2ccccc2c1,c1ccc2cc(ccc2c1)C(CS(=O)(=O)N3CCN(CC3)c4ccc(cc4)F)N(C=O)O,ON(C=O)C(CS(=O)(=O)N1CCN(CC1)C=2C=CC(=CC2)F)C=3C=CC=4C=CC=CC4C3,-5.2441251
BOPPSUHPZARXTH-UHFFFAOYSA-N,"3-(2H-1,3-benzodioxol-5-yl)-2-methylpropanal",CC(C=O)Cc1ccc2c(c1)OCO2,CC(Cc1ccc2c(c1)OCO2)C=O,CC(CC=1C=CC2=C(C1)OCO2)C=O,-2.31321907
BORDJBLYHHCFLM-UHFFFAOYSA-N,,COc1cc2c(Nc3ccc(NC(=O)c4ccccc4)cc3)ncnc2cc1OCC(O)CNC(C)CO,CC(CO)NCC(COc1cc2c(cc1OC)c(ncn2)Nc3ccc(cc3)NC(=O)c4ccccc4)O,COC=1C=C2C(=NC=NC2=CC1OCC(O)CNC(C)CO)NC=3C=CC(=CC3)NC(=O)C=4C=CC=CC4,-3.2924297999999994
BOSGOBMSCGJBEU-UHFFFAOYSA-N,"Hydracrylic acid, pentyl ester, acetate",CCCCCOC(=O)C(C)OC(C)=O,CCCCCOC(=O)C(C)OC(=O)C,C(=O)(C(OC(=O)C)C)OCCCCC,-0.8188
BOSMZFBHAYFUBJ-UHFFFAOYSA-N,tricresyl phosphate,Cc1ccc(OP(=O)(Oc2ccc(C)cc2)Oc2ccc(C)cc2)cc1,Cc1ccc(cc1)OP(=O)(Oc2ccc(cc2)C)Oc3ccc(cc3)C,P(=O)(OC=1C=CC(=CC1)C)(OC=2C=CC(=CC2)C)OC=3C=CC(=CC3)C,-6.0891
BOSPLJJRCJCRHX-UHFFFAOYSA-N,methyl 2-cyano-5-methyl-3-oxohexanoate,COC(=O)C(C#N)C(=O)CC(C)C,CC(C)CC(=O)C(C#N)C(=O)OC,COC(=O)C(C#N)C(=O)CC(C)C,-2.7275
BOTWFXYSPFMFNR-UHFFFAOYSA-N,"(2E,7R,11R)-3,7,11,15-tetramethylhexadec-2-en-1-ol; (2Z,7R,11R)-3,7,11,15-tetramethylhexadec-2-en-1-ol",C/C(=C\CO)CCC[C@H](C)CCC[C@H](C)CCCC(C)C,CC(C)CCC[C@@H](C)CCC[C@@H](C)CCC/C(=C/CO)/C,CC(C)CCC[C@@H](C)CCC[C@@H](C)CCC/C(=C/CO)/C,-4.861870553999999
BOVGTQGAOIONJV-UHFFFAOYSA-N,gliclazide,Cc1ccc(S(=O)(=O)NC(=O)NN2CC3CCCC3C2)cc1,Cc1ccc(cc1)S(=O)(=O)NC(=O)NN2CC3CCCC3C2,CC1=CC=C(C=C1)S(=O)(=O)NC(=O)NN2CC3CCCC3C2,-3.937811809
BOYNTSOFXPSPNM-UHFFFAOYSA-N,,COc1cc2c(Oc3ccc4[nH]c(C)cc4c3)ncnc2cc1OCC(O)CN1CCN(C)CC1,Cc1cc2cc(ccc2[nH]1)Oc3c4cc(c(cc4ncn3)OCC(CN5CCN(CC5)C)O)OC,COC=1C=C2C(=NC=NC2=CC1OCC(O)CN3CCN(CC3)C)OC=4C=CC=5NC(=CC5C4)C,-2.4089354
BOZHPKGNNJPZKV-UHFFFAOYSA-N,"Butanoic acid, 4-(benzoylamino)-",O=C(O)CCCNC(=O)c1ccccc1,c1ccc(cc1)C(=O)NCCCC(=O)O,OC(=O)CCCNC(=O)C=1C=CC=CC1,-1.20225
BPACBVFVVBVJPB-UHFFFAOYSA-N,Pindolol,CCN(CC)CCOC(=O)C1CCC(N)CC1,CCN(CC)CCOC(=O)C1CCC(CC1)N,NC1CCC(CC1)C(=O)OCCN(CC)CC,-3.7880000000000003
BPEGJWRSRHCHSN-UHFFFAOYSA-N,temozolomide,Cn1nnc2c(C(N)=O)ncn2c1=O,Cn1c(=O)n2cnc(c2nn1)C(=O)N,CN1C(=O)N2C=NC(=C2N=N1)C(=O)N,-1.81101614
BPEWUONYVDABNZ-UHFFFAOYSA-N,testolactone,C[C@]12CC[C@H]3[C@@H](CCC4=CC(=O)C=C[C@@]43C)[C@@H]1CCC(=O)O2,C[C@]12CC[C@H]3[C@H]([C@@H]1CCC(=O)O2)CCC4=CC(=O)C=C[C@]34C,C[C@]12CC[C@H]3[C@H]([C@@H]1CCC(=O)O2)CCC4=CC(=O)C=C[C@]34C,-4.046321707
BPFYOAJNDMUVBL-UHFFFAOYSA-N,Marbofloxacin,CN1CCN(c2c(F)cc3c(=O)c(C(=O)O)cn4c3c2OCN4C)CC1,CN1CCN(CC1)c2c(cc3c4c2OCN(n4cc(c3=O)C(=O)O)C)F,OC(=O)C1=CN2C3=C(C(=C(C=C3C1=O)F)N4CCN(CC4)C)OCN2C,-1.86
BPGSASFKCZQNNZ-UHFFFAOYSA-N,"1H-Purin-2-amine, 6-(trifluoromethyl)-",Nc1nc(C(F)(F)F)c2[nH]cnc2n1,c1[nH]c2c(nc(nc2n1)N)C(F)(F)F,NC=1N=C2N=CNC2=C(N1)C(F)(F)F,-3.1348
BPHXDZBGZMGGBD-UHFFFAOYSA-N,,Nc1ccc(Sc2ccc3c(c2)OCC(=O)N3)cc1,c1cc(ccc1N)Sc2ccc3c(c2)OCC(=O)N3,NC=1C=CC(=CC1)SC=2C=CC3=C(C2)OCC(=O)N3,-4.627088
BPIUIOXAFBGMNB-UHFFFAOYSA-N,1-(Hexyloxy)hexane,CCCCCCOCCCCCC,CCCCCCOCCCCCC,CCCCCCOCCCCCC,-4.270151881
BPIZZOZTEBWEPT-UHFFFAOYSA-N,CARVOTAN-ACETONE,CC1=CC(C(C)C)CCC1=O,CC1=CC(CCC1=O)C(C)C,CC(C)C1CCC(=O)C(=C1)C,-2.228
BPLBGHOLXOTWMN-UHFFFAOYSA-N,Penicillin V,CC1(C)S[C@@H]2[C@H](NC(=O)COc3ccccc3)C(=O)N2[C@H]1C(=O)O,CC1([C@@H](N2[C@H](S1)[C@@H](C2=O)NC(=O)COc3ccccc3)C(=O)O)C,N12C(C(SC1C(C2=O)NC(=O)COC3=CC=CC=C3)(C)C)C(=O)O,-2.851169595
BPNYMFHPFYWEFL-UHFFFAOYSA-N,,Cc1ccccc1NC(=O)Nc1ccc(NC(=O)OCc2cccc(OCCCC(=O)O)c2)c(C)c1,Cc1ccccc1NC(=O)Nc2ccc(c(c2)C)NC(=O)OCc3cccc(c3)OCCCC(=O)O,CC=1C=CC=CC1NC(=O)NC=2C=CC(=C(C2)C)NC(=O)OCC=3C=CC=C(C3)OCCCC(=O)O,-4.251812
BPOVRAAUERBWFK-UHFFFAOYSA-N,1-Hydroxy-cyclohexanecarboxylic acid,O=C(O)C1(O)CCCCC1,C1CCC(CC1)(C(=O)O)O,OC(=O)C1(CCCCC1)O,-0.3328
BPPKLCKUMRKLMS-UHFFFAOYSA-N,,COc1cc2c(Oc3ccc4[nH]ccc4c3)ncnc2cc1OCCCN(C)S(C)(=O)=O,CN(CCCOc1cc2c(cc1OC)c(ncn2)Oc3ccc4c(c3)cc[nH]4)S(=O)(=O)C,COC=1C=C2C(=NC=NC2=CC1OCCCN(C)S(=O)(=O)C)OC=3C=CC=4NC=CC4C3,-5.3565473
BPPVUXSMLBXYGG-UHFFFAOYSA-N,,Cc1c(C(=O)c2c[nH]n(C)c2=O)ccc(S(C)(=O)=O)c1C1=NOCC1,Cc1c(ccc(c1C2=NOCC2)S(=O)(=O)C)C(=O)c3c[nH]n(c3=O)C,S(=O)(=O)(C1=C(C(=C(C=C1)C(=O)C=2C(=O)N(NC2)C)C)C3=NOCC3)C,-0.5604
BPQMGSKTAYIVFO-UHFFFAOYSA-N,vismodegib,CS(=O)(=O)c1ccc(C(=O)Nc2ccc(Cl)c(-c3ccccn3)c2)c(Cl)c1,CS(=O)(=O)c1ccc(c(c1)Cl)C(=O)Nc2ccc(c(c2)c3ccccn3)Cl,CS(=O)(=O)C1=CC(=C(C=C1)C(=O)NC2=CC(=C(C=C2)Cl)C3=CC=CC=N3)Cl,-6.6245914589999995
BPRBJIUXTLFJML-UHFFFAOYSA-N,4-[(ETHOXYCARBONYLOXY)METHOXY]ACETANILIDE,CCOC(=O)OCOc1ccc(NC(C)=O)cc1,CCOC(=O)OCOc1ccc(cc1)NC(=O)C,CCOC(=O)OCOC1=CC=C(C=C1)NC(=O)C,-2.43
BPRDAFNKPFOFEA-UHFFFAOYSA-N,sodium; 5-chloro-3-[3-methyl-5-oxido-1-(3-sulfonatophenyl)pyrazol-4-yl]diazenyl-2-oxidobenzenesulfonate; chromium(+3) cation,Cc1nn(-c2cccc(S(=O)(=O)O)c2)c(O)c1/N=N/c1cc(Cl)cc(S(=O)(=O)O)c1O,Cc1c(c(n(n1)c2cccc(c2)S(=O)(=O)O)O)/N=N/c3cc(cc(c3O)S(=O)(=O)O)Cl,CC1=NN(C(=C1/N=N/C=2C=C(C=C(C2O)S(=O)(=O)O)Cl)O)C=3C=CC=C(C3)S(=O)(=O)O,-1.133083743
BPRHUIZQVSMCRT-UHFFFAOYSA-N,rosuvastatin calcium,CC(C)c1nc(N(C)S(C)(=O)=O)nc(-c2ccc(F)cc2)c1/C=C/[C@@H](O)C[C@@H](O)CC(=O)O,CC(C)c1c(c(nc(n1)N(C)S(=O)(=O)C)c2ccc(cc2)F)/C=C/[C@H](C[C@H](CC(=O)O)O)O,CC(C1=NC(=NC(=C1/C=C/[C@@H](O)C[C@@H](O)CC(=O)O)C2=CC=C(C=C2)F)N(S(=O)(=O)C)C)C,-3.4819808739999996
BPRYUXCVCCNUFE-UHFFFAOYSA-N,"2,4,6-Trimethylphenol",Cc1cc(C)c(O)c(C)c1,Cc1cc(c(c(c1)C)O)C,CC=1C=C(C(=C(C1)C)O)C,-2.055
BPSPHGIZPFQZRX-UHFFFAOYSA-N,,O=C(O)CCCn1cccc(NC(=O)Cc2ccc3nc(Nc4ccccc4)oc3c2)c1=O,c1ccc(cc1)Nc2nc3ccc(cc3o2)CC(=O)Nc4cccn(c4=O)CCCC(=O)O,OC(=O)CCCN1C=CC=C(C1=O)NC(=O)CC=2C=CC=3N=C(OC3C2)NC=4C=CC=CC4,-3.8239087
BPSSWVRROCFULD-UHFFFAOYSA-N,"Propanamide, 2-hydroxy-N-tetradecyl-",CCCCCCCCCCCCCCNC(=O)C(C)O,CCCCCCCCCCCCCCNC(=O)C(C)O,CCCCCCCCCCCCCCNC(=O)C(C)O,-3.9782
BPTKLSBRRJFNHJ-UHFFFAOYSA-N,"4-phenyldiazenylbenzene-1,3-diol",Oc1ccc(/N=N/c2ccccc2)c(O)c1,c1ccc(cc1)/N=N/c2ccc(cc2O)O,OC1=CC(=C(C=C1)/N=N/C2=CC=CC=C2)O,-3.053
BPVPVSLXYCTIFJ-UHFFFAOYSA-N,,COc1cc2c(Nc3ncc(CC(=O)Nc4cccc(Cl)c4)s3)ncnc2cc1OCCCN1CCCCC1,COc1cc2c(cc1OCCCN3CCCCC3)ncnc2Nc4ncc(s4)CC(=O)Nc5cccc(c5)Cl,COC=1C=C2C(=NC=NC2=CC1OCCCN3CCCCC3)NC4=NC=C(S4)CC(=O)NC=5C=CC=C(C5)Cl,-3.5072396
BPXVHIRIPLPOPT-UHFFFAOYSA-N,"tris(2-hydroxyethyl)-1,3,5-triazinane-2,4,6-trione",O=c1n(CCO)c(=O)n(CCO)c(=O)n1CCO,C(CO)n1c(=O)n(c(=O)n(c1=O)CCO)CCO,OCCN1C(=O)N(C(=O)N(C1=O)CCO)CCO,0.3404
BPYKTIZUTYGOLE-UHFFFAOYSA-N,Bilirubin,C=CC1=C(C)/C(=C/c2[nH]c(Cc3[nH]c(/C=C4\NC(=O)C(C)=C4C=C)c(C)c3CCC(=O)O)c(CCC(=O)O)c2C)NC1=O,Cc1c(c([nH]c1/C=C\2/C(=C(C(=O)N2)C=C)C)Cc3c(c(c([nH]3)/C=C\4/C(=C(C(=O)N4)C)C=C)C)CCC(=O)O)CCC(=O)O,OC(=O)CCC1=C(NC(=C1C)/C=C/2\NC(=O)C(=C2C)C=C)CC=3NC(=C(C3CCC(=O)O)C)/C=C/4\NC(=O)C(=C4C=C)C,-4.813
BPZSYCZIITTYBL-UHFFFAOYSA-N,formoterol fumarate,COc1ccc(C[C@H](C)NC[C@@H](O)c2ccc(O)c(NC=O)c2)cc1,C[C@@H](Cc1ccc(cc1)OC)NC[C@H](c2ccc(c(c2)NC=O)O)O,C[C@@H](CC1=CC=C(C=C1)OC)NC[C@H](C2=CC(=C(C=C2)O)NC=O)O,-3.0861872000000004
BQBXKWGMPUCSQV-UHFFFAOYSA-N,"2,5-Dibromobenzaldehyde",O=Cc1cc(Br)ccc1Br,c1cc(c(cc1Br)C=O)Br,O=CC1=C(C=CC(=C1)Br)Br,-3.80015
BQCWLXXZTCLGSZ-UHFFFAOYSA-N,2-Nitro-4-(trifluoromethyl)benzonitrile,N#Cc1ccc(C(F)(F)F)cc1[N+](=O)[O-],c1cc(c(cc1C(F)(F)F)[N+](=O)[O-])C#N,O=[N+]([O-])C=1C=C(C=CC1C#N)C(F)(F)F,-2.470886782
BQHMISUMCDYQTR-UHFFFAOYSA-N,"2-[(2H-1,3-benzodioxol-5-yl)amino]ethan-1-ol hydrochloride",OCCNc1ccc2c(c1)OCO2,c1cc2c(cc1NCCO)OCO2,OCCNC=1C=CC2=C(C1)OCO2,0.272898751
BQJCRHHNABKAKU-UHFFFAOYSA-N,"morphine;  7,8-didehydro-4,5-epoxy-17-methylmorphinan-3,6-diol",CN1CC[C@]23c4c5ccc(O)c4O[C@H]2[C@@H](O)C=C[C@H]3[C@H]1C5,CN1CC[C@]23c4c5ccc(c4O[C@H]2[C@H](C=C[C@H]3[C@H]1C5)O)O,OC1C=CC2C34C1OC5=C3C(=CC=C5O)CC2N(CC4)C,-3.15
BQJMULPFAUGVGY-UHFFFAOYSA-N,hydroxy-[6-[hydroxy(oxo)azaniumyl]oxyhexoxy]-oxoazanium,O=[N+]([O-])OCCCCCCO[N+](=O)[O-],C(CCCO[N+](=O)[O-])CCO[N+](=O)[O-],[N+](=O)(OCCCCCCO[N+](=O)[O-])[O-],-2.77
BQJZPFJTMLRBHC-UHFFFAOYSA-N,,O=C(c1ccc(-c2ccncc2)nc1)N1CCN(S(=O)(=O)c2cc3cc(Cl)ccc3o2)CC1,c1cc2c(cc1Cl)cc(o2)S(=O)(=O)N3CCN(CC3)C(=O)c4ccc(nc4)c5ccncc5,ClC=1C=CC=2OC(=CC2C1)S(=O)(=O)N3CCN(CC3)C(=O)C=4C=CC(=NC4)C=5C=CN=CC5,-6.1381491
BQMVHCAGTCCSIB-UHFFFAOYSA-N,,CN1CCC(Oc2cccc3ncnc(Nc4cccc(Cl)c4)c23)CC1,CN1CCC(CC1)Oc2cccc3c2c(ncn3)Nc4cccc(c4)Cl,CN1CCC(CC1)OC=2C=CC=C3C2C(=NC=N3)NC=4C=CC=C(C4)Cl,-4.8860566
BQNWWHFSEXYHKU-UHFFFAOYSA-N,"Hexanoic acid, 6-[(aminocarbonyl)amino]-",NC(=O)NCCCCCC(=O)O,C(CCC(=O)O)CCNC(=O)N,NC(=O)NCCCCCC(=O)O,-2.1595
BQOFWKZOCNGFEC-UHFFFAOYSA-N,"3,7,7-Trimethylbicyclo[4.1.0]hept-3-ene",CC1=CCC2C(C1)C2(C)C,CC1=CCC2C(C1)C2(C)C,CC1=CCC2C(C1)C2(C)C,-4.670202636
BQPBZDSDFCDSAO-UHFFFAOYSA-N,2-(2-Naphthyloxy)ethanol,OCCOc1ccc2ccccc2c1,c1ccc2cc(ccc2c1)OCCO,OCCOC=1C=CC=2C=CC=CC2C1,-2.714147345
BQSJTQLCZDPROO-UHFFFAOYSA-N,febuxostat,Cc1nc(-c2ccc(OCC(C)C)c(C#N)c2)sc1C(=O)O,Cc1c(sc(n1)c2ccc(c(c2)C#N)OCC(C)C)C(=O)O,CC1=C(SC(=N1)C2=CC(=C(C=C2)OCC(C)C)C#N)C(=O)O,-4.386265669
BQTOLZHBHCEHJX-UHFFFAOYSA-N,,COc1cc2ncnc(Nc3ccc(F)c(Cl)c3)c2cc1OCCCN(C)C,CN(C)CCCOc1cc2c(cc1OC)ncnc2Nc3ccc(c(c3)Cl)F,COC=1C=C2N=CN=C(C2=CC1OCCCN(C)C)NC=3C=CC(=C(C3)Cl)F,-2.8860566000000003
BQUKEGNGEPWGHK-UHFFFAOYSA-N,disodium; chromium(+3) cation; 3-(3-methyl-5-oxido-1-phenylpyrazol-4-yl)diazenyl-4-oxidobenzenesulfonate; 1-(2-oxido-5-phenyldiazenylphenyl)diazenylnaphthalen-2-olate,Oc1ccc(/N=N/c2ccccc2)cc1/N=N/c1c(O)ccc2ccccc12,c1ccc(cc1)/N=N/c2ccc(c(c2)/N=N/c3c4ccccc4ccc3O)O,OC=1C=CC(=CC1/N=N/C=2C(=CC=C3C2C=CC=C3)O)/N=N/C=4C=CC=CC4,-2.691803339
BQVUABVGYYSDCJ-UHFFFAOYSA-N,L-leucyl-L-tryptophan,CC(C)CC(N)C(=O)NC(Cc1c[nH]c2ccccc12)C(=O)O,CC(C)CC(C(=O)NC(Cc1c[nH]c2c1cccc2)C(=O)O)N,CC(C)CC(N)C(=O)NC(CC1=CNC2=C1C=CC=C2)C(=O)O,-1.1179999999999999
BQWYJUVFIXTFHH-UHFFFAOYSA-N,4-Fluoro-2-propyl-phenol,CCCc1cc(F)ccc1O,CCCc1cc(ccc1O)F,CCCC=1C=C(C=CC1O)F,-1.8869999999999998
BQXKPLXLMDOCBL-UHFFFAOYSA-N,Lasinavir,COCCNC(=O)C(NC(=O)C(Cc1cc(OC)c(OC)c(OC)c1)CC(O)C(Cc1ccccc1)NC(=O)OC(C)(C)C)C(C)C,CC(C)C(C(=O)NCCOC)NC(=O)C(Cc1cc(c(c(c1)OC)OC)OC)CC(C(Cc2ccccc2)NC(=O)OC(C)(C)C)O,COCCNC(=O)C(NC(=O)C(CC(O)C(CC1=CC=CC=C1)NC(=O)OC(C)(C)C)CC2=CC(=C(C(=C2)OC)OC)OC)C(C)C,-4.0
BQYJATMQXGBDHF-UHFFFAOYSA-N,Difenoconazole,CC1COC(Cn2cncn2)(c2ccc(Oc3ccc(Cl)cc3)cc2Cl)O1,CC1COC(O1)(Cn2cncn2)c3ccc(cc3Cl)Oc4ccc(cc4)Cl,O1CC(OC1(CN2N=CN=C2)C3=C(C=C(C=C3)OC4=CC=C(C=C4)Cl)Cl)C,-4.433
BQZXLHPCTFWBFW-UHFFFAOYSA-N,,CC(CC(CS(=O)(=O)N1CCN(c2ccc(Cl)c(Cl)c2)CC1)N(O)C=O)c1ccccc1,CC(CC(CS(=O)(=O)N1CCN(CC1)c2ccc(c(c2)Cl)Cl)N(C=O)O)c3ccccc3,CC(CC(CS(=O)(=O)N1CCN(CC1)C=2C=CC(=C(C2)Cl)Cl)N(O)C=O)C=3C=CC=CC3,-5.09691