inchikey,Name,SMILES_stand,SMILES,kekSmiles,logS
FRNYLDWAVCZIII-UHFFFAOYSA-N,,CC(=N)N1CCC(Oc2ccc(NS(=O)(=O)c3ccc4cc(Br)ccc4c3)cc2)CC1,CC(=N)N1CCC(CC1)Oc2ccc(cc2)NS(=O)(=O)c3ccc4cc(ccc4c3)Br,CC(=N)N1CCC(CC1)OC=2C=CC(=CC2)NS(=O)(=O)C=3C=CC=4C=C(C=CC4C3)Br,-3.8442997
FROBCXTULYFHEJ-UHFFFAOYSA-N,PROPAQUIZAFOP,CC(C)=NOCCOC(=O)C(C)Oc1ccc(Oc2cnc3cc(Cl)ccc3n2)cc1,CC(C(=O)OCCON=C(C)C)Oc1ccc(cc1)Oc2cnc3cc(ccc3n2)Cl,N=1C(=CN=C2C1C=CC(=C2)Cl)OC3=CC=C(C=C3)OC(C(=O)OCCON=C(C)C)C,-5.848
FRPJXPJMRWBBIH-UHFFFAOYSA-N,estramustine,C[C@]12CC[C@@H]3c4ccc(OC(=O)N(CCCl)CCCl)cc4CC[C@H]3[C@@H]1CC[C@@H]2O,C[C@]12CC[C@@H]3c4ccc(cc4CC[C@H]3[C@@H]1CC[C@@H]2O)OC(=O)N(CCCl)CCCl,C[C@]12CC[C@H]3[C@H]([C@@H]1CC[C@@H]2O)CCC4=C3C=CC(=C4)OC(=O)N(CCCl)CCCl,-6.0640637139999995
FRPWXYDFEPWNRU-UHFFFAOYSA-N,,COc1ccc(Cl)cc1S(=O)(=O)NC1N=C(c2ccccc2)c2ccccc2N(C)C1=O,CN1c2ccccc2C(=NC(C1=O)NS(=O)(=O)c3cc(ccc3OC)Cl)c4ccccc4,COC=1C=CC(=CC1S(=O)(=O)NC2N=C(C=3C=CC=CC3N(C2=O)C)C=4C=CC=CC4)Cl,-5.3372421999999995
FRPZMMHWLSIFAZ-UHFFFAOYSA-N,undecylic_acid,C=CCCCCCCCCC(=O)O,C=CCCCCCCCCC(=O)O,OC(=O)CCCCCCCCC=C,-3.4
FRQDZJMEHSJOPU-UHFFFAOYSA-N,2-(2-{2-[(2-ethylhexanoyl)oxy]ethoxy}ethoxy)ethyl 2-ethylhexanoate,CCCCC(CC)C(=O)OCCOCCOCCOC(=O)C(CC)CCCC,CCCCC(CC)C(=O)OCCOCCOCCOC(=O)C(CC)CCCC,CCCCC(CC)C(=O)OCCOCCOCCOC(=O)C(CC)CCCC,-5.42
FRQUNVLMWIYOLV-UHFFFAOYSA-N,"2,3,4-Trichloroanisole",COc1ccc(Cl)c(Cl)c1Cl,COc1ccc(c(c1Cl)Cl)Cl,ClC=1C(=C(C=CC1Cl)OC)Cl,-4.29
FRSYQNWUEGCPIE-UHFFFAOYSA-N,,CN(C)CC(C)(C)CNc1ccc(Nc2ncc(Br)c(Nc3ccccc3)n2)cc1,CC(C)(CNc1ccc(cc1)Nc2ncc(c(n2)Nc3ccccc3)Br)CN(C)C,CN(C)CC(C)(C)CNC=1C=CC(=CC1)NC=2N=CC(=C(N2)NC=3C=CC=CC3)Br,-4.79588
FRUAWFWSIDGCTE-UHFFFAOYSA-N,Metronidazole,COC1CCC2CC(C(C)C(=O)O)CCC2C1,CC(C1CCC2CC(CCC2C1)OC)C(=O)O,O=C(O)C(C)C1CC2CCC(CC2CC1)OC,-1.2209999999999999
FRULNPISKVKNGF-UHFFFAOYSA-N,,CC1CCCCOC(CN(C)C(=O)CCC(F)(F)F)C(C)CN(C(C)CO)C(=O)c2cc(NS(=O)(=O)c3cn(C)cn3)ccc2O1,CC1CCCCOC(C(CN(C(=O)c2cc(ccc2O1)NS(=O)(=O)c3cn(cn3)C)C(C)CO)C)CN(C)C(=O)CCC(F)(F)F,CC(CO)N1CC(C(OCCCCC(OC2=CC=C(C=C2C1=O)NS(=O)(=O)C3=CN(C=N3)C)C)CN(C)C(=O)CCC(F)(F)F)C,-4.0655
FRVRYQDYZFDWNR-UHFFFAOYSA-N,"4-[(E)-2-(2,5-dichlorophenyl)diazen-1-yl]-3-hydroxy-N-(2-methoxyphenyl)naphthalene-2-carboxamide",COc1ccccc1NC(=O)C1=Cc2ccccc2/C(=N\Nc2cc(Cl)ccc2Cl)C1=O,COc1ccccc1NC(=O)C2=Cc3ccccc3/C(=N\Nc4cc(ccc4Cl)Cl)/C2=O,COC=1C=CC=CC1NC(=O)C2=CC=3C=CC=CC3/C(=N\NC=4C=C(C=CC4Cl)Cl)/C2=O,-8.464783893
FRVZFOQCJISTSC-UHFFFAOYSA-N,,O=C(O)c1ccc(COc2ccccc2OCc2ccccc2)cc1,c1ccc(cc1)COc2ccccc2OCc3ccc(cc3)C(=O)O,OC(=O)C=1C=CC(=CC1)COC=2C=CC=CC2OCC=3C=CC=CC3,-3.19382
FRWFRRPXOYMNKY-UHFFFAOYSA-N,methyl 1-(4-bromophenylsulfonyl)cyclohexane-1-carboxylate; 1-(4-bromophenylsulfonyl)cyclohexanecarboxylic acid methyl ester,COC(=O)C1(S(=O)(=O)c2ccc(Br)cc2)CCCCC1,COC(=O)C1(CCCCC1)S(=O)(=O)c2ccc(cc2)Br,S(=O)(=O)(C1(CCCCC1)C(=O)OC)C2=CC=C(C=C2)Br,-4.479
FRXWFMQJGARFOJ-UHFFFAOYSA-N,2-(4-Bromophenylsulfonylamino)-4-(4-Sulfamoylphenylamino)pyrimidine; N4-[2-(4-BROMOPHENYLSULFONYLAMINO)PYRIMIDIN-4-YL]SULFANILAMIDE,NS(=O)(=O)c1ccc(Nc2ccnc(NS(=O)(=O)c3ccc(Br)cc3)n2)cc1,c1cc(ccc1Nc2ccnc(n2)NS(=O)(=O)c3ccc(cc3)Br)S(=O)(=O)N,NS(=O)(=O)C1=CC=C(C=C1)NC2=NC(=NC=C2)NS(=O)(=O)C3=CC=C(C=C3)Br,-2.62
FRXZIFVYTNMCHF-UHFFFAOYSA-N,"Benzamide, 2,5-dihydroxy-",NC(=O)c1cc(O)ccc1O,c1cc(c(cc1O)C(=O)N)O,C1(=C(C=CC(=C1)O)O)C(=O)N,-1.683
FSAOWPPKPPPONF-UHFFFAOYSA-N,"Barbituric acid, 5-(2-butenyl)-1,5-dimethyl-",C/C=C/CC1(C)C(=O)NC(=O)N(C)C1=O,C/C=C/CC1(C(=O)NC(=O)N(C1=O)C)C,O=C1NC(=O)C(C(=O)N1C)(C)C/C=C/C,-1.545
FSAVDKDHPDSCTO-UHFFFAOYSA-N,Chlorfenvinphos,CCOP(=O)(OCC)O/C(=C\Cl)c1ccc(Cl)cc1Cl,CCOP(=O)(OCC)O/C(=C\Cl)/c1ccc(cc1Cl)Cl,P(=O)(OCC)(O/C(=C\Cl)/C1=CC=C(C=C1Cl)Cl)OCC,-3.4619999999999997
FSAWRQYDMHSDRN-UHFFFAOYSA-N,"1,4,5-trimethylnaphthalene",Cc1ccc(C)c2c(C)cccc12,Cc1cccc2c1c(ccc2C)C,CC=1C=CC(=C2C1C=CC=C2C)C,-4.92
FSCPTWHCVYVMGT-UHFFFAOYSA-N,N-Hydroxymethyl-5-CHLOROBENZOXAZOL-2-ONE; N-(Hydroxymethyl)chlorzoxazone,O=c1oc2ccc(Cl)cc2n1CO,c1cc2c(cc1Cl)n(c(=O)o2)CO,OCN1C(=O)OC=2C1=CC(=CC2)Cl,-2.7
FSCWZHGZWWDELK-UHFFFAOYSA-N,Vinclozolin,C=CC1(C)OC(=O)N(c2cc(Cl)cc(Cl)c2)C1=O,CC1(C(=O)N(C(=O)O1)c2cc(cc(c2)Cl)Cl)C=C,ClC=1C=C(C=C(C1)N2C(=O)C(OC2=O)(C=C)C)Cl,-4.93
FSCXTSFGXSVYHI-UHFFFAOYSA-N,TRIETHYLENE GLYCOL BIS(2-ETHYLBUTYRATE),CCC(CC)OC(=O)CCOCCOCCOC(=O)C(CC)CC,CCC(CC)C(=O)OCCOCCOCCC(=O)OC(CC)CC,C(=O)(C(CC)CC)OCCOCCOCCC(=O)OC(CC)CC,-3.239
FSEISSDMHJPQMO-UHFFFAOYSA-N,,O=C(O)c1ccccc1Cn1ccc2cc(-c3ccc(-c4ccccc4)cc3)ccc21,c1ccc(cc1)c2ccc(cc2)c3ccc4c(c3)ccn4Cc5ccccc5C(=O)O,OC(=O)C=1C=CC=CC1CN2C=CC3=C2C=CC(=C3)C=4C=CC(=CC4)C=5C=CC=CC5,-5.3001623
FSERHDPEOFYMMK-UHFFFAOYSA-N,bromogramine,CN(C)Cc1c[nH]c2ccc(Br)cc12,CN(C)Cc1c[nH]c2c1cc(cc2)Br,BrC=1C=C2C(=CNC2=CC1)CN(C)C,-4.0552
FSGXIKCJDKVYGI-UHFFFAOYSA-N,,COc1cc2c(Oc3ccc(Br)cc3F)ncnc2cc1OCCCN1CCN(CC(=O)N(C)C)CC1,CN(C)C(=O)CN1CCN(CC1)CCCOc2cc3c(cc2OC)c(ncn3)Oc4ccc(cc4F)Br,COC=1C=C2C(=NC=NC2=CC1OCCCN3CCN(CC3)CC(=O)N(C)C)OC=4C=CC(=CC4F)Br,-3.9208187999999993
FSJCYXPMWQPVOS-UHFFFAOYSA-N,,CCc1cc(OCc2ccc(-c3ccccc3-c3nnn[nH]3)cc2)c2ccccc2n1,CCc1cc(c2ccccc2n1)OCc3ccc(cc3)c4ccccc4c5[nH]nnn5,CCC=1C=C(C=2C=CC=CC2N1)OCC=3C=CC(=CC3)C=4C=CC=CC4C5=NN=NN5,-5.1135093000000005
FSKWVQYXXLTRRM-UHFFFAOYSA-N,,COc1cc2ncnc(Nc3cc(-c4ccccc4)[nH]n3)c2cc1OC,COc1cc2c(cc1OC)ncnc2Nc3cc([nH]n3)c4ccccc4,COC=1C=C2N=CN=C(C2=CC1OC)NC=3C=C(NN3)C=4C=CC=CC4,-5.8860566
FSKYZRCACCHDGR-UHFFFAOYSA-N,"Pyrido[3,2-d]pyrimidin-4(1H)-one",Oc1ncnc2cccnc12,c1cc2c(c(ncn2)O)nc1,O=C1N=CNC2=C1N=CC=C2,-2.0658
FSMWQBAWCHOSGI-UHFFFAOYSA-N,,CCn1c2ccccc2c2cc(NC(=O)N(C)CCN3CCOCC3)ccc21,CCn1c2ccccc2c3c1ccc(c3)NC(=O)N(C)CCN4CCOCC4,CCN1C=2C=CC=CC2C3=C1C=CC(=C3)NC(=O)N(C)CCN4CCOCC4,-3.6197888
FSNFYCPCXFQJSI-UHFFFAOYSA-N,Tricresyl phosphate,Cc1ccc(OP(=O)(Oc2cccc(C)c2)Oc2ccccc2C)cc1,Cc1ccc(cc1)OP(=O)(Oc2cccc(c2)C)Oc3ccccc3C,P(=O)(OC1=CC=C(C=C1)C)(OC2=CC=CC(=C2)C)OC3=CC=CC=C3C,-6.01
FSPTUZZVVXTEON-UHFFFAOYSA-N,"3-Pyrrolidinecarboxylic acid, 2,2,5,5-tetramethy",CC1(C)CC(C(=O)O)C(C)(C)N1,CC1(CC(C(N1)(C)C)C(=O)O)C,C1(C(NC(C1)(C)C)(C)C)C(=O)O,0.4654
FSPYMSUDIVFOHY-UHFFFAOYSA-N,4-amino-N-(4-carbamoylphenyl)benzamide,NC(=O)c1ccc(NC(=O)c2ccc(N)cc2)cc1,c1cc(ccc1C(=O)Nc2ccc(cc2)C(=O)N)N,NC(=O)C=1C=CC(=CC1)NC(=O)C=2C=CC(=CC2)N,-4.915824997
FSQKKOOTNAMONP-UHFFFAOYSA-N,acemetacin,COc1ccc2c(c1)c(CC(=O)OCC(=O)O)c(C)n2C(=O)c1ccc(Cl)cc1,Cc1c(c2cc(ccc2n1C(=O)c3ccc(cc3)Cl)OC)CC(=O)OCC(=O)O,CC1=C(C2=C(N1C(=O)C3=CC=C(C=C3)Cl)C=CC(=C2)OC)CC(=O)OCC(=O)O,-3.823720784
FSQVNBYCGIYCSF-UHFFFAOYSA-N,3-CYCLOHEXYL-2-MERCAPTOPROPENOIC  ACID,O=C(O)/C(S)=C/C1CCCCC1,C1CCC(CC1)/C=C(/C(=O)O)\S,OC(=O)/C(=C/C1CCCCC1)/S,-2.67
FSVGVZLWIQIJCP-UHFFFAOYSA-N,,O=C(O)CCCOc1cc(NC(=O)Cc2ccc3nc(Nc4ccccc4)oc3c2)ccc1OCc1ccccn1,c1ccc(cc1)Nc2nc3ccc(cc3o2)CC(=O)Nc4ccc(c(c4)OCCCC(=O)O)OCc5ccccn5,OC(=O)CCCOC=1C=C(C=CC1OCC=2C=CC=CN2)NC(=O)CC=3C=CC=4N=C(OC4C3)NC=5C=CC=CC5,-3.9586072999999997
FSVJFNAIGNNGKK-UHFFFAOYSA-N,Praziquantel,O=C(C1CCCCC1)N1CC(=O)N2CCc3ccccc3C2C1,c1ccc2c(c1)CCN3C2CN(CC3=O)C(=O)C4CCCCC4,O=C1CN(CC2N1CCC3=C2C=CC=C3)C(=O)C4CCCCC4,-2.8927
FSWXOANXOQPCFF-UHFFFAOYSA-N,p-Aminopropiophenone,CCC(=O)c1ccc(N)cc1,CCC(=O)c1ccc(cc1)N,O=C(C1=CC=C(C=C1)N)CC,-2.63
FSWZFIMNUMKNEU-UHFFFAOYSA-N,"Succinic acid, 2,3-dibromo-2-methyl-, erythro-(.",CC(Br)(C(=O)O)C(Br)C(=O)O,CC(C(C(=O)O)Br)(C(=O)O)Br,C(C(C(=O)O)Br)(C(=O)O)(Br)C,0.2936
FSXGJIFBTBJMHV-UHFFFAOYSA-N,1-Benzyl-N-phenylpiperidin-4-amine,c1ccc(CN2CCC(Nc3ccccc3)CC2)cc1,c1ccc(cc1)CN2CCC(CC2)Nc3ccccc3,C1CN(CCC1NC=2C=CC=CC2)CC=3C=CC=CC3,-3.954111473
FTALTLPZDVFJSS-UHFFFAOYSA-N,2-(2-Ethoxyethoxy)ethyl prop-2-enoate,C=CC(=O)OCCOCCOCC,CCOCCOCCOC(=O)C=C,CCOCCOCCOC(=O)C=C,-0.181275503
FTBUKOLPOATXGV-UHFFFAOYSA-N,Propyl dodecanoate,CCCCCCCCCCCC(=O)OCCC,CCCCCCCCCCCC(=O)OCCC,CCCCCCCCCCCC(=O)OCCC,-6.28
FTCOKXNKPOUEFH-UHFFFAOYSA-N,"MYCLOZOLIN; 3-(3,5-DICHLOROPHENYL)-5-METHOXYMETHYL-5-METHYL-OXAZOLIDINE-2,4-DIONE",COCC1(C)OC(=O)N(c2cc(Cl)cc(Cl)c2)C1=O,CC1(C(=O)N(C(=O)O1)c2cc(cc(c2)Cl)Cl)COC,COCC1(OC(=O)N(C1=O)C2=CC(=CC(=C2)Cl)Cl)C,-4.66
FTFCCHCMSWMZPT-UHFFFAOYSA-N,,Cc1c(NC(=O)N2CCOCC2)ccc2c1c1ccccc1n2S(C)(=O)=O,Cc1c(ccc2c1c3ccccc3n2S(=O)(=O)C)NC(=O)N4CCOCC4,CC=1C(=CC=C2C1C3=C(N2S(=O)(=O)C)C=CC=C3)NC(=O)N4CCOCC4,-4.5850267
FTFCGPQHFCNEKR-UHFFFAOYSA-N,,CCn1c2c(c3cc(Nc4ccc(C)nn4)ccc31)CCCC2,CCn1c2ccc(cc2c3c1CCCC3)Nc4ccc(nn4)C,CCN1C2=C(C3=C1C=CC(=C3)NC=4C=CC(=NN4)C)CCCC2,-6.7695511
FTMJABNEYSXUEV-UHFFFAOYSA-N,"1-ethyl-6-hydroxy-4-methyl-5-[(E)-2-(2-nitrophenyl)diazen-1-yl]-2-oxo-1,2-dihydropyridine-3-carbonitrile",CCN1C(=O)C(C#N)=C(C)/C(=N/Nc2ccccc2[N+](=O)[O-])C1=O,CCN1C(=O)C(=C(/C(=N/Nc2ccccc2[N+](=O)[O-])/C1=O)C)C#N,CCN1C(=O)/C(=N\NC=2C=CC=CC2[N+](=O)[O-])/C(=C(C1=O)C#N)C,-6.815988001
FTMSYMOBBRINAR-UHFFFAOYSA-N,1-cyclohexylethyl butanoate,CCCC(=O)OC(C)C1CCCCC1,CCCC(=O)OC(C)C1CCCCC1,CCCC(=O)OC(C)C1CCCCC1,-3.9208794489999996
FTNAKPKIYCRYML-UHFFFAOYSA-N,,CC(C)Cn1c(=O)n(C)c(=O)c2c(S(=O)(=O)N3CCC(O)C3)c(Cc3cccc(C(F)(F)F)c3)sc21,CC(C)Cn1c2c(c(c(s2)Cc3cccc(c3)C(F)(F)F)S(=O)(=O)N4CCC(C4)O)c(=O)n(c1=O)C,OC1CN(CC1)S(=O)(=O)C2=C(SC3=C2C(=O)N(C(=O)N3CC(C)C)C)CC=4C=C(C=CC4)C(F)(F)F,-5.3494837
FTOAOBMCPZCFFF-UHFFFAOYSA-N,Barbital,CCC1(CC)C(=O)NC(=O)NC1=O,CCC1(C(=O)NC(=O)NC1=O)CC,O=C1NC(=O)NC(=O)C1(CC)CC,-1.3928
FTOVXSOBNPWTSH-UHFFFAOYSA-N,benzo[b]fluoranthene,c1ccc2c(c1)-c1cccc3c1c-2cc1ccccc13,c1ccc2c(c1)cc-3c4c2cccc4-c5c3cccc5,C=1C=CC=2C(C1)=CC3=C4C2C=CC=C4C5=C3C=CC=C5,-8.23
FTPZYEUOHPSICT-UHFFFAOYSA-N,,COc1cc2c(Oc3ccc(Br)cc3F)ncnc2cc1OCC1CCC(=O)N1,COc1cc2c(cc1OCC3CCC(=O)N3)ncnc2Oc4ccc(cc4F)Br,COC=1C=C2C(=NC=NC2=CC1OCC3CCC(=O)N3)OC=4C=CC(=CC4F)Br,-4.3565473
FTRQZXKIDLZWRS-UHFFFAOYSA-N,"2,2,4-trimethylhexanedinitrile; 2,4,4-trimethylhexanedinitrile",CC(CC#N)CC(C)(C)C#N,CC(CC#N)CC(C)(C)C#N,CC(CC#N)CC(C)(C)C#N,-1.574841111
FTUOYBKDYQNKPK-UHFFFAOYSA-N,,COc1cc2ncnc(Nc3ccc(F)c(Cl)c3)c2cc1OCCCN1CCCC(C)C1,CC1CCCN(C1)CCCOc2cc3c(cc2OC)ncnc3Nc4ccc(c(c4)Cl)F,COC=1C=C2N=CN=C(C2=CC1OCCCN3CCCC(C3)C)NC=4C=CC(=C(C4)Cl)F,-3.8860566
FTYQOLCTDSZGKU-UHFFFAOYSA-N,"1,1-dioxospiro[2,1$l^{6}-benzoxathiole-3,9'-xanthene]-2',7'-diol",O=S1(=O)OC2(c3cc(O)ccc3Oc3ccc(O)cc32)c2ccccc21,c1ccc2c(c1)C3(c4cc(ccc4Oc5c3cc(cc5)O)O)OS2(=O)=O,O=S1(=O)OC2(C3=C(C=CC(=C3)O)OC4=C2C=C(C=C4)O)C5=C1C=CC=C5,-3.4989999999999997
FTZDEZOARSJHGU-UHFFFAOYSA-N,"3,4,4'-Trichlorodiphenyl ether",Clc1ccc(Oc2ccc(Cl)c(Cl)c2)cc1,c1cc(ccc1Oc2ccc(c(c2)Cl)Cl)Cl,ClC=1C=CC(=CC1)OC=2C=CC(=C(C2)Cl)Cl,-5.66015
FUBVWMNBEHXPSU-UHFFFAOYSA-N,Moricizine,CCOC(=O)Nc1ccc2c(c1)N(C(=O)CCN1CCOCC1)c1ccccc1S2,CCOC(=O)Nc1ccc2c(c1)N(c3ccccc3S2)C(=O)CCN4CCOCC4,CCOC(=O)NC1=CC2=C(C=C1)SC3=C(C=CC=C3)N2C(=O)CCN4CCOCC4,-3.9
FUBXGPLKJXZJMS-UHFFFAOYSA-N,,COc1cc2c(Nc3ccc(NC(=O)c4ccccc4)cc3)ncnc2cc1OCCNCCCO,COc1cc2c(cc1OCCNCCCO)ncnc2Nc3ccc(cc3)NC(=O)c4ccccc4,COC=1C=C2C(=NC=NC2=CC1OCCNCCCO)NC=3C=CC(=CC3)NC(=O)C=4C=CC=CC4,-3.649752
FUCIMTBKFFVPSB-UHFFFAOYSA-N,nonanebis(thioic S-acid),OC(=S)CCCCCCCC(O)=S,C(CCCC(=S)O)CCCC(=S)O,OC(=S)CCCCCCCC(=S)O,-2.3895
FUCSPKRFPKVOKV-UHFFFAOYSA-N,"1,3-Benzodioxole-5-acetaldehyde",O=CCc1cccc2c1OCO2,c1cc(c2c(c1)OCO2)CC=O,C=12C(=CC=CC1CC=O)OCO2,-1.96
FUDNBFMOXDUIIE-UHFFFAOYSA-N,"3,7-Dimethylocta-1,6-diene",C=CC(C)CCC=C(C)C,CC(CCC=C(C)C)C=C,CC(CCC=C(C)C)C=C,-5.964793222999999
FUGCGCXGFWNOSY-UHFFFAOYSA-N,Lactic acid decyl ester,CCCCCCCCCCOC(=O)C(C)O,CCCCCCCCCCOC(=O)C(C)O,CCCCCCCCCCOC(=O)C(C)O,-3.06
FUIRXNMHGAKITO-UHFFFAOYSA-N,,O=S(=O)(NCCCn1ccnc1)c1ccc(Nc2nccc(-c3cnc4ccccn34)n2)cc1,c1ccn2c(c1)ncc2c3ccnc(n3)Nc4ccc(cc4)S(=O)(=O)NCCCn5ccnc5,O=S(=O)(NCCCN1C=CN=C1)C=2C=CC(=CC2)NC=3N=CC=C(N3)C4=CN=C5N4C=CC=C5,-5.4436975
FUJAATUXSLPQSZ-UHFFFAOYSA-N,,COc1cc2c(Nc3ncc(CC(=O)Nc4ccc(F)c(F)c4)s3)ncnc2cc1OCC(O)CN1CCCCC1,COc1cc2c(cc1OCC(CN3CCCCC3)O)ncnc2Nc4ncc(s4)CC(=O)Nc5ccc(c(c5)F)F,COC=1C=C2C(=NC=NC2=CC1OCC(O)CN3CCCCC3)NC4=NC=C(S4)CC(=O)NC=5C=CC(=C(C5)F)F,-3.5391022000000003
FUJMLWXCVGOLCR-UHFFFAOYSA-N,,O=CN(O)C(CS(=O)(=O)N1CCN(c2cnccn2)CC1)c1ccccc1,c1ccc(cc1)C(CS(=O)(=O)N2CCN(CC2)c3cnccn3)N(C=O)O,ON(C=O)C(CS(=O)(=O)N1CCN(CC1)C=2C=NC=CN2)C=3C=CC=CC3,-3.0624821
FUKCEEDRHGCYHH-UHFFFAOYSA-N,"ACETAMIDE, 2-(BENZOYLOXY)-N-BUTYL-",CCCCNC(=O)COC(=O)c1ccccc1,CCCCNC(=O)COC(=O)c1ccccc1,O=C(NCCCC)COC(=O)C=1C=CC=CC1,-2.759
FUKXNOBSWGZIKZ-UHFFFAOYSA-N,"3-hydroxy-4-[(E)-2-[2-methoxy-5-(phenylcarbamoyl)phenyl]diazen-1-yl]-N-(2-oxo-2,3-dihydro-1H-1,3-benzodiazol-5-yl)naphthalene-2-carboxamide",COc1ccc(C(=O)Nc2ccccc2)cc1N/N=C1\C(=O)C(C(=O)Nc2ccc3[nH]c(=O)[nH]c3c2)=Cc2ccccc21,COc1ccc(cc1N/N=C\2/c3ccccc3C=C(C2=O)C(=O)Nc4ccc5c(c4)[nH]c(=O)[nH]5)C(=O)Nc6ccccc6,COC=1C=CC(=CC1N/N=C/2\C(=O)C(=CC3=C2C=CC=C3)C(=O)NC=4C=CC=5NC(=O)NC5C4)C(=O)NC=6C=CC=CC6,-8.479041666
FULZLIGZKMKICU-UHFFFAOYSA-N,Phenylthiourea,NC(=S)Nc1ccccc1,c1ccc(cc1)NC(=S)N,S=C(NC=1C=CC=CC1)N,-1.77
FUNKLPFBUONSBR-UHFFFAOYSA-N,"1H-Purine-2,6-dione, 3,7-dihydro-3,7,8-trimethyl",Cc1nc2c(c(=O)[nH]c(=O)n2C)n1C,Cc1nc2c(n1C)c(=O)[nH]c(=O)n2C,C12=C(C(=O)NC(=O)N1C)N(C(=N2)C)C,-0.5432
FUSNPOOETKRESL-UHFFFAOYSA-N,(13Z)-N-octadecyldocos-13-enamide,CCCCCCCC/C=C\CCCCCCCCCCCC(=O)NCCCCCCCCCCCCCCCCCC,CCCCCCCCCCCCCCCCCCNC(=O)CCCCCCCCCCC/C=C\CCCCCCCC,CCCCCCCCCCCCCCCCCCNC(=O)CCCCCCCCCCC/C=C\CCCCCCCC,-7.770909422999999
FUSVXZHHBUFKBE-UHFFFAOYSA-N,,NC(=O)Nc1cc(-c2ccc(C(F)(F)F)cc2)sc1C(N)=O,c1cc(ccc1c2cc(c(s2)C(=O)N)NC(=O)N)C(F)(F)F,NC(=O)NC=1C=C(SC1C(=O)N)C=2C=CC(=CC2)C(F)(F)F,-6.122628700000001
FUUHMSUPRUNWRQ-UHFFFAOYSA-N,"2,4,3,5-Tetrachloroanisole",COc1cc(Cl)c(Cl)c(Cl)c1Cl,COc1cc(c(c(c1Cl)Cl)Cl)Cl,ClC=1C(=C(C=C(C1Cl)OC)Cl)Cl,-5.26
FUVJZKBZTLWUQG-UHFFFAOYSA-N,,Cc1ccc(Cl)c(Nc2cc(Nc3ccc(C(=O)NCCN4CCCCCC4)cc3)ncn2)c1,Cc1ccc(c(c1)Nc2cc(ncn2)Nc3ccc(cc3)C(=O)NCCN4CCCCCC4)Cl,CC=1C=CC(=C(C1)NC=2C=C(N=CN2)NC=3C=CC(=CC3)C(=O)NCCN4CCCCCC4)Cl,-4.05061
FUWATACATASMHP-UHFFFAOYSA-N,"ACETAMIDE, 2-(BENZOYLOXY)-N-(1-METHYLETHYL)-",CC(C)NC(=O)COC(=O)c1ccccc1,CC(C)NC(=O)COC(=O)c1ccccc1,CC(C)NC(=O)COC(=O)C=1C=CC=CC1,-2.7310000000000003
FUWAUHTYQJMCAB-UHFFFAOYSA-N,,COc1cc2c(Nc3ccc(NC(=O)c4cccc(Cl)c4)nc3)ncnc2cc1OCCCCN1CCN(CCO)CC1,COc1cc2c(cc1OCCCCN3CCN(CC3)CCO)ncnc2Nc4ccc(nc4)NC(=O)c5cccc(c5)Cl,COC=1C=C2C(=NC=NC2=CC1OCCCCN3CCN(CC3)CCO)NC=4C=CC(=NC4)NC(=O)C=5C=CC=C(C5)Cl,-6.102372900000001
FUWUEFKEXZQKKA-UHFFFAOYSA-N,"2,4,6-Cycloheptatrien-1-one, 2-hydroxy-4-(1-meth",CC(C)c1cccc(=O)c(O)c1,CC(C)c1cccc(=O)c(c1)O,C(C)(C)C=1C=C(C(=O)C=CC1)O,-2.136
FUYPFZDBJVTCNE-UHFFFAOYSA-N,,Cc1ccc(NC(=O)c2ccnc(N3CCOCC3)c2)cc1NC(=O)c1cccc(CN2CCNCC2)c1,Cc1ccc(cc1NC(=O)c2cccc(c2)CN3CCNCC3)NC(=O)c4ccnc(c4)N5CCOCC5,CC=1C=CC(=CC1NC(=O)C=2C=CC=C(C2)CN3CCNCC3)NC(=O)C=4C=CN=C(C4)N5CCOCC5,-2.3279021
FVCVTENGOIWIOR-UHFFFAOYSA-N,,CC(CO)NC(=O)c1ccc(Nc2ccc3c(c2)c2ccccc2n3C(C)C)nn1,CC(C)n1c2ccccc2c3c1ccc(c3)Nc4ccc(nn4)C(=O)NC(C)CO,CC(C)N1C=2C=CC=CC2C3=C1C=CC(=C3)NC=4C=CC(=NN4)C(=O)NC(C)CO,-5.251812
FVFZZGVIUGIJEP-UHFFFAOYSA-N,,Cc1ccc(NC(=O)c2cccc(N3CCOCC3)n2)cc1NC(=O)c1cccc(CN2CCN(C)CC2)c1,Cc1ccc(cc1NC(=O)c2cccc(c2)CN3CCN(CC3)C)NC(=O)c4cccc(n4)N5CCOCC5,CN1CCN(CC1)CC=2C=CC=C(C2)C(=O)NC=3C=C(C=CC3C)NC(=O)C=4C=CC=C(N4)N5CCOCC5,-3.0809219
FVGLMBIOYBRQAL-UHFFFAOYSA-N,,O=S(=O)(NCCCN1CCCC(O)C1)c1ccc(Nc2nccc(-c3cnc4ccccn34)n2)cc1,c1ccn2c(c1)ncc2c3ccnc(n3)Nc4ccc(cc4)S(=O)(=O)NCCCN5CCCC(C5)O,OC1CCCN(C1)CCCNS(=O)(=O)C=2C=CC(=CC2)NC=3N=CC=C(N3)C4=CN=C5N4C=CC=C5,-3.9208187999999993
FVGQMAWKTJOQOK-UHFFFAOYSA-N,,COc1cc2ncc(C#N)c(Nc3ccc(Oc4cccc5occc45)cc3)c2cc1OC,COc1cc2c(cc1OC)ncc(c2Nc3ccc(cc3)Oc4cccc5c4cco5)C#N,COC=1C=C2N=CC(=C(C2=CC1OC)NC=3C=CC(=CC3)OC=4C=CC=C5C4C=CO5)C#N,-6.568636200000001
FVGWXQIRZLHDBO-UHFFFAOYSA-N,"L-Mannitol, 6-deoxy-1,3:2,5-di-O-methylene-",CC1OCOC2COCOC2C1O,CC1C(C2C(COCO2)OCO1)O,C12C(C(OCOC1COCO2)C)O,-0.5625
FVHAWXWFPBPFOS-UHFFFAOYSA-N,"1,2-Dimethyl-3-nitrobenzene",Cc1cccc([N+](=O)[O-])c1C,Cc1cccc(c1C)[N+](=O)[O-],CC=1C=CC=C(C1C)[N+](=O)[O-],-3.003359989
FVIDSGRVHCMQNQ-UHFFFAOYSA-N,CHLORMEPHOS,CCOP(=S)(COC)SCCl,CCOP(=S)(COC)SCCl,P(=S)(COC)(OCC)SCCl,-3.592
FVJDPXFTGITIFF-UHFFFAOYSA-N,,NC(=O)Nc1sc(-c2ccc(N3CCOCC3)nc2)cc1C(N)=O,c1cc(ncc1c2cc(c(s2)NC(=O)N)C(=O)N)N3CCOCC3,NC(=O)NC=1SC(=CC1C(=O)N)C=2C=CC(=NC2)N3CCOCC3,-4.853872
FVJIUQSKXOYFKG-UHFFFAOYSA-N,"3,4-DICHLOROBENZYL ALCOHOL",OCc1ccc(Cl)c(Cl)c1,c1cc(c(cc1CO)Cl)Cl,OCC=1C=CC(=C(C1)Cl)Cl,-2.04395
FVJLCPJDDAGIJE-UHFFFAOYSA-N,Tris(2-hydroxyethyl)methylammonium methyl sulphate,C[N+](CCO)(CCO)CCO,C[N+](CCO)(CCO)CCO,C[N+](CCO)(CCO)CCO,0.39268321
FVKRIDSRWFEQME-UHFFFAOYSA-N,3-METHYLBUTYL DODECANOATE,CCCCCCCCCCCC(=O)OCCC(C)C,CCCCCCCCCCCC(=O)OCCC(C)C,CCCCCCCCCCCC(=O)OCCC(C)C,-6.733064111
FVLUGNOOEZYDNV-UHFFFAOYSA-N,"2,5-bis[(4-methylphenyl)amino]terephthalic acid",Cc1ccc(Nc2cc(C(=O)O)c(Nc3ccc(C)cc3)cc2C(=O)O)cc1,Cc1ccc(cc1)Nc2cc(c(cc2C(=O)O)Nc3ccc(cc3)C)C(=O)O,CC=1C=CC(=CC1)NC=2C=C(C(=CC2C(=O)O)NC=3C=CC(=CC3)C)C(=O)O,-5.070756741
FVMDYYGIDFPZAX-UHFFFAOYSA-N,m-Hydroxyphenylacetic acid,O=C(O)Cc1cccc(O)c1,c1cc(cc(c1)O)CC(=O)O,OC(=O)CC=1C=CC=C(C1)O,0.8177
FVNMJBXUOCNONC-UHFFFAOYSA-N,,O=C(O)CCCCn1cc(NC(=O)Cc2ccc3nc(Nc4ccccc4)oc3c2)ccc1=O,c1ccc(cc1)Nc2nc3ccc(cc3o2)CC(=O)Nc4ccc(=O)n(c4)CCCCC(=O)O,OC(=O)CCCCN1C=C(C=CC1=O)NC(=O)CC=2C=CC=3N=C(OC3C2)NC=4C=CC=CC4,-2.3665315
FVOLIWMKUOGVKB-UHFFFAOYSA-N,,CCS(=O)(=O)c1ccc(Nc2ncc(C#N)c(OC(C)C)n2)cc1,CCS(=O)(=O)c1ccc(cc1)Nc2ncc(c(n2)OC(C)C)C#N,CCS(=O)(=O)C=1C=CC(=CC1)NC=2N=CC(=C(N2)OC(C)C)C#N,-6.091515
FVOOZWSHBQBIIW-UHFFFAOYSA-N,,COCC(C)NC(=O)c1ccc(Nc2ccc3c(c2)c2ccccc2n3C(C)C)nn1,CC(C)n1c2ccccc2c3c1ccc(c3)Nc4ccc(nn4)C(=O)NC(C)COC,COCC(C)NC(=O)C=1C=CC(=NN1)NC=2C=CC=3N(C=4C=CC=CC4C3C2)C(C)C,-6.638272200000001
FVQDAMVODWHNOJ-UHFFFAOYSA-N,2-(carboxymethylamino)-3-phenylpropanoic acid,O=C(O)CNC(Cc1ccccc1)C(=O)O,c1ccc(cc1)CC(C(=O)O)NCC(=O)O,O=C(O)CNC(CC1=CC=CC=C1)C(=O)O,-2.1590000000000003
FVQITOLOYMWVFU-UHFFFAOYSA-N,DIFENACOUM,O=c1oc2ccccc2c(O)c1C1CC(c2ccc(-c3ccccc3)cc2)Cc2ccccc21,c1ccc(cc1)c2ccc(cc2)C3Cc4ccccc4C(C3)c5c(c6ccccc6oc5=O)O,OC1=C(C(=O)OC2=C1C=CC=C2)C3C=4C=CC=CC4CC(C3)C5=CC=C(C=C5)C=6C=CC=CC6,-7.157
FVQQWSSTYVBNST-UHFFFAOYSA-N,"3(2H)-Thiazoleacetic acid, 4-methyl-2-thioxo-",Cc1csc(=S)n1CC(=O)O,Cc1csc(=S)n1CC(=O)O,N1(C(=S)SC=C1C)CC(=O)O,-1.9631
FVTGHVUNSOAJIV-UHFFFAOYSA-N,,FC(F)(F)c1ccc(-c2ncc3c(n2)-c2ccccc2OC3)nc1,c1ccc2c(c1)-c3c(cnc(n3)c4ccc(cn4)C(F)(F)F)CO2,FC(F)(F)C=1C=NC(=CC1)C=2N=CC3=C(N2)C4=C(C=CC=C4)OC3,-7.5585252999999994
FVTNHEPZWCILIC-UHFFFAOYSA-N,,COc1cc2c(Nc3ccc(NC(=O)c4cccc(Cl)c4)nc3)ncnc2cc1OCCCNCCCCO,COc1cc2c(cc1OCCCNCCCCO)ncnc2Nc3ccc(nc3)NC(=O)c4cccc(c4)Cl,COC=1C=C2C(=NC=NC2=CC1OCCCNCCCCO)NC=3C=CC(=NC3)NC(=O)C=4C=CC=C(C4)Cl,-5.4202164
FVTRYEKZEKWWTP-UHFFFAOYSA-N,,NC(=O)Nc1sc(-c2cnc(N3CCNCC3)nc2)cc1C(N)=O,c1c(c(sc1c2cnc(nc2)N3CCNCC3)NC(=O)N)C(=O)N,NC(=O)NC=1SC(=CC1C(=O)N)C=2C=NC(=NC2)N3CCNCC3,-4.2076082999999995
FVUGZKDGWGKCFE-UHFFFAOYSA-N,FRA-045,CC(=O)C1(C)CC2=C(CCCC2(C)C)CC1C,CC1CC2=C(CC1(C)C(=O)C)C(CCC2)(C)C,O=C(C1(C(CC2=C(C1)C(CCC2)(C)C)C)C)C,-4.941895658
FVVLESPPDAOPNA-UHFFFAOYSA-N,,CC(C)(C)c1ccc(S(=O)(=O)Nc2ccc(-n3[nH]c(CCCC(=O)O)cc3=O)nc2)cc1,CC(C)(C)c1ccc(cc1)S(=O)(=O)Nc2ccc(nc2)n3c(=O)cc([nH]3)CCCC(=O)O,CC(C)(C)C=1C=CC(=CC1)S(=O)(=O)NC=2C=CC(=NC2)N3NC(=CC3=O)CCCC(=O)O,-2.537602
FVVXWRGARUACNW-UHFFFAOYSA-N,3-Methylisoquinoline,Cc1cc2ccccc2cn1,Cc1cc2ccccc2cn1,CC1=CC2=C(C=CC=C2)C=N1,-2.19
FVYAHOWGWFHWHD-UHFFFAOYSA-N,,COc1ccc(C(=O)Nc2cc(NC(=O)c3ccc(OCCCN4CCOCC4)cc3)ccc2C)cc1OC,Cc1ccc(cc1NC(=O)c2ccc(c(c2)OC)OC)NC(=O)c3ccc(cc3)OCCCN4CCOCC4,COC=1C=CC(=CC1OC)C(=O)NC=2C=C(C=CC2C)NC(=O)C=3C=CC(=CC3)OCCCN4CCOCC4,-4.8452718
FVYRUSCZCWSFLT-UHFFFAOYSA-N,"PHOSPHONIC ACID, [[4-(2-BENZOTHIAZOLYL)PHENYL]ME",CCO[P+]([O-])(Cc1ccc(-c2nc3ccccc3s2)cc1)OCC,CCO[P+](Cc1ccc(cc1)c2nc3ccccc3s2)([O-])OCC,[P+](CC1=CC=C(C=C1)C2=NC3=C(S2)C=CC=C3)(OCC)(OCC)[O-],-4.0017
FVZQMMMRFNURSH-UHFFFAOYSA-N,4-Chloroguaiacol,COc1cc(Cl)ccc1O,COc1cc(ccc1O)Cl,OC1=C(C=C(C=C1)Cl)OC,-1.50115
FWALVUHDEGNXGY-UHFFFAOYSA-N,,COc1cc(NC(=O)NS(=O)(=O)c2ccccc2)ccc1Cn1ccc2ccc([N+](=O)[O-])cc21,COc1cc(ccc1Cn2ccc3c2cc(cc3)[N+](=O)[O-])NC(=O)NS(=O)(=O)c4ccccc4,COC=1C=C(C=CC1CN2C=CC3=C2C=C(C=C3)[N+](=O)[O-])NC(=O)NS(=O)(=O)C=4C=CC=CC4,-3.9208187999999993
FWCBATIDXGJRMF-UHFFFAOYSA-N,,CC1(C)OCC2OC3(C(=O)O)OC(C)(C)OC3C2O1,CC1(OCC2C(O1)C3C(O2)(OC(O3)(C)C)C(=O)O)C,O=C(O)C12OC(OC1C3OC(OCC3O2)(C)C)(C)C,-1.137
FWIROFMBWVMWLB-UHFFFAOYSA-N,3-Bromo-1-nitrobenzene,O=[N+]([O-])c1cccc(Br)c1,c1cc(cc(c1)Br)[N+](=O)[O-],O=[N+]([O-])C=1C=CC=C(C1)Br,-1.3052
FWJGHARSYXAUOR-UHFFFAOYSA-N,,CC(C)n1c2c(c3ccccc31)CC(NC(=O)NC1CCS(=O)(=O)C1)CC2,CC(C)n1c2ccccc2c3c1CCC(C3)NC(=O)NC4CCS(=O)(=O)C4,CC(C)N1C2=C(C3=C1C=CC=C3)CC(CC2)NC(=O)NC4CCS(=O)(=O)C4,-3.6777807