inchikey,Name,SMILES_stand,SMILES,kekSmiles,logS
GGMMGMNKJQEZIX-UHFFFAOYSA-N,,CCn1c2ccccc2c2cc(NC(=O)N(C)CCCN(C)C)ccc21,CCn1c2ccccc2c3c1ccc(c3)NC(=O)N(C)CCCN(C)C,CCN1C=2C=CC=CC2C3=C1C=CC(=C3)NC(=O)N(C)CCCN(C)C,-2.5528419999999996
GGNFYLFOVINBQC-UHFFFAOYSA-N,,Cc1cccc(Nc2nc(Nc3ccc(C(=O)NCCCn4ccnc4)cc3)ncc2Br)n1,Cc1cccc(n1)Nc2c(cnc(n2)Nc3ccc(cc3)C(=O)NCCCn4ccnc4)Br,CC=1C=CC=C(N1)NC=2N=C(N=CC2Br)NC=3C=CC(=CC3)C(=O)NCCCN4C=CN=C4,-6.0362122000000005
GGOIDPYRTBHTPO-UHFFFAOYSA-N,,CN(C)C(=O)C(Cc1ccccc1)NC(=O)c1cc2cc(Br)ccc2[nH]1,CN(C)C(=O)C(Cc1ccccc1)NC(=O)c2cc3cc(ccc3[nH]2)Br,CN(C)C(=O)C(CC=1C=CC=CC1)NC(=O)C2=CC=3C=C(C=CC3N2)Br,-6.0
GGPNRMYEAUWVHU-UHFFFAOYSA-N,"14-hydroxy-8,16-diazahexacyclo[11.5.2.1^{1,8}.0^{2,7}.0^{16,19}.0^{12,21}]henicosa-2,4,6,10-tetraene-9,15-dione",O=C1C(O)C2CC3N1CCC31c3ccccc3N3C(=O)C=CC2C31,c1ccc2c(c1)C34CCN5C3CC(C6C4N2C(=O)C=C6)C(C5=O)O,O=C1C(C2CC3N1CCC34C5=C(C=CC=C5)N6C4C2C=CC6=O)O,-2.11
GGRMMRBLTOWVPK-UHFFFAOYSA-N,,Cc1cc2cc(Oc3ncnc4cc(OCCCN5CCS(=O)(=O)CC5)ccc34)ccc2[nH]1,Cc1cc2cc(ccc2[nH]1)Oc3c4ccc(cc4ncn3)OCCCN5CCS(=O)(=O)CC5,CC1=CC=2C=C(C=CC2N1)OC=3N=CN=C4C3C=CC(=C4)OCCCN5CCS(=O)(=O)CC5,-4.721246400000001
GGSUCNLOZRCGPQ-UHFFFAOYSA-N,"N,N-Diethylaniline",CCN(CC)c1ccccc1,CCN(CC)c1ccccc1,CCN(CC)C=1C=CC=CC1,-3.03
GGTUESNSCAJXCP-UHFFFAOYSA-N,,O=C(NCCCN1CCCC1=O)c1ccc(Nc2ncc(Cl)c(Nc3ccccc3)n2)cc1,c1ccc(cc1)Nc2c(cnc(n2)Nc3ccc(cc3)C(=O)NCCCN4CCCC4=O)Cl,ClC=1C=NC(=NC1NC=2C=CC=CC2)NC=3C=CC(=CC3)C(=O)NCCCN4CCCC4=O,-5.455932
GGUOCFNAWIODMF-UHFFFAOYSA-N,p-Chloroacetanilide,CC(=O)Nc1ccc(Cl)cc1,CC(=O)Nc1ccc(cc1)Cl,O=C(NC1=CC=C(C=C1)Cl)C,-2.8415
GGWHBJGBERXSLL-UHFFFAOYSA-N,Cycloxydim,CCC/C(=N\OCC)C1=C(O)CC(C2CCCSC2)CC1=O,CCC/C(=N\OCC)/C1=C(CC(CC1=O)C2CCCSC2)O,S1CC(CCC1)C2CC(=C(C(=O)C2)/C(=N/OCC)/CCC)O,-3.8489999999999998
GGXDSIUMQOZKNP-UHFFFAOYSA-N,TIANAFAC,Cc1c(CC(=O)O)sc2cc(Cl)ccc12,Cc1c2ccc(cc2sc1CC(=O)O)Cl,CC1=C(SC2=C1C=CC(=C2)Cl)CC(=O)O,-3.84
GGXICVAJURFBLW-UHFFFAOYSA-N,latanoprost,CC(C)OC(=O)CCC/C=C\C[C@H]1[C@@H](O)C[C@@H](O)[C@@H]1CC[C@@H](O)CCc1ccccc1,CC(C)OC(=O)CCC/C=C\C[C@H]1[C@H](C[C@H]([C@@H]1CC[C@H](CCc2ccccc2)O)O)O,OC1C(C(C(C1)O)C/C=C/CCCC(=O)OC(C)C)CCC(O)CCC2=CC=CC=C2,-1.476303236
GGXKWVWZWMLJEH-UHFFFAOYSA-N,famciclovir,CC(=O)OCC(CCn1cnc2cnc(N)nc21)COC(C)=O,CC(=O)OCC(CCn1cnc2c1nc(nc2)N)COC(=O)C,CC(=O)OCC(CCN1C=NC=2C1=NC(=NC2)N)COC(=O)C,-0.109011265
GHAFHOLMBHEAKY-UHFFFAOYSA-N,,Cc1ncc(-c2ccnc(Nc3ccc(S(=O)(=O)NCC(C)O)cc3)n2)n1C,Cc1ncc(n1C)c2ccnc(n2)Nc3ccc(cc3)S(=O)(=O)NCC(C)O,CC(O)CNS(=O)(=O)C=1C=CC(=CC1)NC=2N=CC=C(N2)C3=CN=C(N3C)C,-4.1023729
GHAQVSSERMFIOD-UHFFFAOYSA-N,,COc1cc2c(Oc3ccc4[nH]ccc4c3)ncnc2cc1OCC1CCN(C)CC1,CN1CCC(CC1)COc2cc3c(cc2OC)c(ncn3)Oc4ccc5c(c4)cc[nH]5,COC=1C=C2C(=NC=NC2=CC1OCC3CCN(CC3)C)OC=4C=CC=5NC=CC5C4,-3.0510982
GHBFNMLVSPCDGN-UHFFFAOYSA-N,"1,3-dihydroxypropan-2-yl octanoate 2,3-dihydroxypropyl octanoate",CCCCCCCC(=O)OCC(O)CO,CCCCCCCC(=O)OCC(CO)O,CCCCCCCC(=O)OCC(O)CO,0.17948706600000003
GHBSPIPJMLAMEP-UHFFFAOYSA-N,6-heptyloxan-2-one,CCCCCC1CCCC(=O)O1,CCCCCC1CCCC(=O)O1,CCCCCC1CCCC(=O)O1,-1.6290161159999998
GHCZAUBVMUEKKP-UHFFFAOYSA-N,GLYCOURSODEOXYCHOLIC ACID,C[C@H](CCC(=O)NCC(=O)O)[C@H]1CC[C@H]2[C@H]3[C@H](CC[C@@]21C)[C@@]1(C)CC[C@@H](O)C[C@H]1C[C@H]3O,C[C@H](CCC(=O)NCC(=O)O)[C@H]1CC[C@@H]2[C@@]1(CC[C@H]3[C@H]2[C@@H](C[C@H]4[C@@]3(CC[C@H](C4)O)C)O)C,C[C@H](CCC(=O)NCC(=O)O)[C@H]1CC[C@@H]2[C@@]1(CC[C@H]3[C@H]2[C@@H](C[C@H]4[C@@]3(CC[C@H](C4)O)C)O)C,-5.155
GHFBNMVLMJXYKO-UHFFFAOYSA-N,,CNS(=O)(=O)c1ccc(NC(=O)C(C)(O)C(F)(F)F)c(Cl)c1Cl,CC(C(=O)Nc1ccc(c(c1Cl)Cl)S(=O)(=O)NC)(C(F)(F)F)O,CNS(=O)(=O)C=1C=CC(=C(C1Cl)Cl)NC(=O)C(C)(O)C(F)(F)F,-3.0132282999999997
GHFMMRFMDHDOBP-UHFFFAOYSA-N,Tirpate,CNC(=O)O/N=C/C1(C)SCC(C)S1,CC1CSC(S1)(C)/C=N/OC(=O)NC,O=C(O/N=C/C1(SCC(S1)C)C)NC,-2.37
GHGWSZDKWIDYOL-UHFFFAOYSA-N,,COc1cc2c(Nc3ccc(Oc4ccccc4OC)cc3)c(C#N)cnc2cc1OCCCN1CCOCC1,COc1ccccc1Oc2ccc(cc2)Nc3c4cc(c(cc4ncc3C#N)OCCCN5CCOCC5)OC,COC=1C=CC=CC1OC=2C=CC(=CC2)NC=3C(=CN=C4C3C=C(C(=C4)OCCCN5CCOCC5)OC)C#N,-7.0457575
GHHFRPRCYQNNDL-UHFFFAOYSA-N,THIOPHENOBARBITAL;  5-ETHYL-5-PHENYL-2-THIOBARBITURIC  ACID,CCC1(c2ccccc2)C(=O)NC(=S)NC1=O,CCC1(C(=O)NC(=S)NC1=O)c2ccccc2,CCC1(C(=O)NC(=S)NC1=O)C2=CC=CC=C2,-3.58
GHHVUVARQMQDCW-UHFFFAOYSA-N,phthalic acid,C=CCC1CCCCC1OCC(O)CNC(C)C,CC(C)NCC(COC1CCCCC1CC=C)O,C(C(CNC(C)C)O)OC1CCCCC1CC=C,-1.493
GHICCUXQJBDNRN-UHFFFAOYSA-N,4-iodobenzoic acid,O=C(O)c1ccc(I)cc1,c1cc(ccc1C(=O)O)I,OC(=O)C=1C=CC(=CC1)I,-3.96305
GHKOFFNLGXMVNJ-UHFFFAOYSA-N,dodecyl 3-{[3-(dodecyloxy)-3-oxopropyl]sulfanyl}propanoate,CCCCCCCCCCCCOC(=O)CCSCCC(=O)OCCCCCCCCCCCC,CCCCCCCCCCCCOC(=O)CCSCCC(=O)OCCCCCCCCCCCC,CCCCCCCCCCCCOC(=O)CCSCCC(=O)OCCCCCCCCCCCC,-5.711843311
GHOKWGTUZJEAQD-UHFFFAOYSA-N,D-PANTOTHENIC ACID,CC(C)(CO)C(O)C(=O)NCCC(=O)O,CC(C)(CO)C(C(=O)NCCC(=O)O)O,CC(C)(CO)C(O)C(=O)NCCC(=O)O,0.6591
GHOSNRCGJFBJIB-UHFFFAOYSA-N,candesartan cilexetil,CCOc1nc2cccc(C(=O)OC(C)OC(=O)OC3CCCCC3)c2n1Cc1ccc(-c2ccccc2-c2nn[nH]n2)cc1,CCOc1nc2cccc(c2n1Cc3ccc(cc3)c4ccccc4c5n[nH]nn5)C(=O)OC(C)OC(=O)OC6CCCCC6,CCOC1=NC2=CC=CC(=C2N1CC3=CC=C(C=C3)C4=CC=CC=C4C5=NNN=N5)C(=O)OC(C)OC(=O)OC6CCCCC6,-7.0868294689999995
GHQNOMOKSVHEQG-UHFFFAOYSA-N,,N#Cc1cnc(Nc2ccc(S(=O)(=O)NCCCN3CCOCC3)cc2)nc1N,c1cc(ccc1Nc2ncc(c(n2)N)C#N)S(=O)(=O)NCCCN3CCOCC3,NC=1N=C(N=CC1C#N)NC=2C=CC(=CC2)S(=O)(=O)NCCCN3CCOCC3,-4.0
GHRVKGJJVOVIGD-UHFFFAOYSA-N,"4,7-Pteridinediamine",Nc1cnc2c(N)ncnc2n1,c1c(nc2c(n1)c(ncn2)N)N,NC=1N=CN=C2C1N=CC(=N2)N,-2.909
GHTUWRRMMHNGAY-UHFFFAOYSA-N,,CCS(=O)(=O)c1ccc(NC(=O)C(C)(O)C(F)(F)F)c(Cl)c1N1CCC(O)CC1,CCS(=O)(=O)c1ccc(c(c1N2CCC(CC2)O)Cl)NC(=O)C(C)(C(F)(F)F)O,CCS(=O)(=O)C=1C=CC(=C(C1N2CCC(CC2)O)Cl)NC(=O)C(C)(O)C(F)(F)F,-4.236572
GHVNFZFCNZKVNT-UHFFFAOYSA-N,"Decanoic acid, mixed esters with octanoic acid and pentaerythritol",CCCCCCCCCC(=O)O,CCCCCCCCCC(=O)O,CCCCCCCCCC(=O)O,-6.619
GHXZTYHSJHQHIJ-UHFFFAOYSA-N,"N',N'''''-hexane-1,6-diylbis[N-(4-chlorophenyl)(imidodicarbonimidic diamide)]",NC(=N\CCCCCC/N=C(N)/N=C(\N)Nc1ccc(Cl)cc1)/N=C(\N)Nc1ccc(Cl)cc1,c1cc(ccc1N/C(=N/C(=N/CCCCCC/N=C(\N)/N=C(\N)/Nc2ccc(cc2)Cl)/N)/N)Cl,N/C(=N\C(=N\CCCCCC/N=C(\N)/N=C(\N)/NC=1C=CC(=CC1)Cl)\N)/NC=2C=CC(=CC2)Cl,-2.8008
GICXRYCDPXZETR-UHFFFAOYSA-O,,CCc1ccc(-n2n[n+]3c(c(C)nc4ccccc43)c2O)cc1,CCc1ccc(cc1)n2c(c3c(nc4ccccc4[n+]3n2)C)O,CC1=NC=2C=CC=CC2[N+]=3C1=C(N(N3)C=4C=CC(=CC4)CC)O,-5.3190247
GIIKFBXVGYJLEK-UHFFFAOYSA-N,"methyl 2-[(4-amino-3,5-dichloro-6-fluoropyridin-2-yl)oxy]acetate",COC(=O)COc1nc(F)c(Cl)c(N)c1Cl,COC(=O)COc1c(c(c(c(n1)F)Cl)N)Cl,COC(=O)COC=1N=C(C(=C(C1Cl)N)Cl)F,-3.951281028
GIILIQOLCNBSCG-UHFFFAOYSA-N,,N#CCCN(C(=O)CNC(=O)c1cc2sc(Cl)c(Cl)c2[nH]1)c1ccccc1,c1ccc(cc1)N(CCC#N)C(=O)CNC(=O)c2cc3c([nH]2)c(c(s3)Cl)Cl,ClC=1SC=2C=C(NC2C1Cl)C(=O)NCC(=O)N(CCC#N)C=3C=CC=CC3,-5.236572
GIITZCIPVGXMHH-UHFFFAOYSA-N,"Benzenepropanoic acid, .beta.-[(carboxymethyl)th",O=C(O)CSC(CC(=O)O)c1ccccc1,c1ccc(cc1)C(CC(=O)O)SCC(=O)O,O=C(O)CSC(CC(=O)O)C1=CC=CC=C1,-1.5475
GIJXKZJWITVLHI-UHFFFAOYSA-N,benzatropine mesylate,CN1[C@H]2CC[C@@H]1CC(OC(c1ccccc1)c1ccccc1)C2,CN1[C@@H]2CC[C@H]1CC(C2)OC(c3ccccc3)c4ccccc4,CN1[C@@H]2CC[C@H]1CC(C2)OC(C3=CC=CC=C3)C4=CC=CC=C4,-0.6974015709999999
GILNGPKTMRSQDW-UHFFFAOYSA-N,"pyrrolidine, 1-[(benzoyloxy)acetyl)]-",O=C(OCC(=O)N1CCCC1)c1ccccc1,c1ccc(cc1)C(=O)OCC(=O)N2CCCC2,O=C(OCC(=O)N1CCCC1)C2=CC=CC=C2,-1.569
GINFBXXYGUODAT-UHFFFAOYSA-N,,COc1nn(/C(O)=N/S(=O)(=O)c2ccccc2OC(F)(F)F)c(=O)n1C,Cn1c(nn(c1=O)/C(=N/S(=O)(=O)c2ccccc2OC(F)(F)F)/O)OC,O=S(=O)(/N=C(\O)/N1N=C(N(C1=O)C)OC)C2=CC=CC=C2OC(F)(F)F,-0.978
GINJFDRNADDBIN-UHFFFAOYSA-N,Bilanafos,C[C@H](NC(=O)[C@H](C)NC(=O)[C@@H](N)CCP(C)(=O)O)C(=O)O,C[C@@H](C(=O)N[C@@H](C)C(=O)O)NC(=O)[C@H](CCP(=O)(C)O)N,OC(=O)C(NC(=O)C(NC(=O)C(N)CCP(=O)(O)C)C)C,0.4904
GIPWCOZBMVRUJC-UHFFFAOYSA-N,,N#Cc1c(N)[nH]c2ccc(Sc3ccc(O)cc3)cc12,c1cc(ccc1O)Sc2ccc3c(c2)c(c([nH]3)N)C#N,NC=1NC=2C=CC(=CC2C1C#N)SC=3C=CC(=CC3)O,-4.0310502999999995
GISWIXLYKWWBTE-UHFFFAOYSA-N,"Glycine, N-[(2-methyl-5-nitrophenyl)sulfonyl]-",Cc1ccc([N+](=O)[O-])cc1S(=O)(=O)NCC(=O)O,Cc1ccc(cc1S(=O)(=O)NCC(=O)O)[N+](=O)[O-],S(=O)(=O)(C1=CC(=CC=C1C)[N+](=O)[O-])NCC(=O)O,-2.3080000000000003
GISYPNUSLOJPSR-UHFFFAOYSA-N,,COc1cc(-c2sc(NC(N)=O)c(C#N)c2C)ccc1O,Cc1c(c(sc1c2ccc(c(c2)OC)O)NC(=O)N)C#N,COC=1C=C(C=CC1O)C=2SC(=C(C2C)C#N)NC(=O)N,-6.619788799999999
GIUGGRUEPHPVNR-UHFFFAOYSA-N,2-chlorodibenzodioxin,Clc1ccc2c(c1)Oc1ccccc1O2,c1ccc2c(c1)Oc3ccc(cc3O2)Cl,ClC=1C=CC2=C(C1)OC3=C(C=CC=C3)O2,-5.855
GIUYCYHIANZCFB-UHFFFAOYSA-N,fludarabine phosphate,Nc1nc(F)nc2c1ncn2[C@@H]1O[C@H](COP(=O)(O)O)[C@@H](O)[C@@H]1O,c1nc2c(nc(nc2n1[C@H]3[C@H]([C@@H]([C@H](O3)COP(=O)(O)O)O)O)F)N,C1=NC2=C(N=C(N=C2N1[C@H]3[C@H]([C@@H]([C@H](O3)COP(=O)(O)O)O)O)F)N,-1.598754833
GIWJAPFDEDCUGC-UHFFFAOYSA-N,,N#Cc1ccc(OCCN2CCCCC2)c(-c2cc(C(N)=O)c(NC(N)=O)s2)c1,c1cc(c(cc1C#N)c2cc(c(s2)NC(=O)N)C(=O)N)OCCN3CCCCC3,NC(=O)NC=1SC(=CC1C(=O)N)C=2C=C(C=CC2OCCN3CCCCC3)C#N,-5.0177288
GIYZBIXRWRSGGT-UHFFFAOYSA-N,,CCN(CC)CCNS(=O)(=O)c1ccc(Nc2nccc(Nc3ccc(Br)cc3)n2)cc1,CCN(CC)CCNS(=O)(=O)c1ccc(cc1)Nc2nccc(n2)Nc3ccc(cc3)Br,CCN(CC)CCNS(=O)(=O)C=1C=CC(=CC1)NC=2N=CC=C(N2)NC=3C=CC(=CC3)Br,-5.136677099999999
GJADLHDOELLEFC-UHFFFAOYSA-N,"1,2-Cyclohexanedione, 4-methyl-, dioxime",CC1CCC(N=O)=C(NO)C1,CC1CCC(=C(C1)NO)N=O,CC1CCC(=C(C1)NO)N=O,-1.6621
GJAWHXHKYYXBSV-UHFFFAOYSA-N,QUINOLINIC ACID,O=C(O)c1cccnc1C(=O)O,c1cc(c(nc1)C(=O)O)C(=O)O,OC(=O)C=1C=CC=NC1C(=O)O,-1.182
GJBRNHKUVLOCEB-UHFFFAOYSA-N,tert-butyl benzenecarboperoxoate,CC(C)(C)OOC(=O)c1ccccc1,CC(C)(C)OOC(=O)c1ccccc1,CC(C)(C)OOC(=O)C=1C=CC=CC1,-2.776216475
GJCOSYZMQJWQCA-UHFFFAOYSA-N,,c1ccc2c(c1)Cc1ccccc1O2,c1ccc2c(c1)Cc3ccccc3O2,C1C=2C=CC=CC2OC3=C1C=CC=C3,-5.3622292
GJDKMLHJOQTUJI-UHFFFAOYSA-N,,O=C(c1ccc(-c2cc[n+]([O-])cc2)cc1)N1CCN(S(=O)(=O)c2ccc3cc(Br)ccc3c2)CC1,c1cc(ccc1c2cc[n+](cc2)[O-])C(=O)N3CCN(CC3)S(=O)(=O)c4ccc5cc(ccc5c4)Br,BrC=1C=CC=2C=C(C=CC2C1)S(=O)(=O)N3CCN(CC3)C(=O)C=4C=CC(=CC4)C=5C=C[N+](=CC5)[O-],-5.8745949
GJDRKHHGPHLVNI-UHFFFAOYSA-N,"diethyl (3,5-di-tert-butyl-4-hydroxybenzyl)phosphonate",CCOP(=O)(Cc1cc(C(C)(C)C)c(O)c(C(C)(C)C)c1)OCC,CCOP(=O)(Cc1cc(c(c(c1)C(C)(C)C)O)C(C)(C)C)OCC,CCOP(=O)(CC=1C=C(C(=C(C1)C(C)(C)C)O)C(C)(C)C)OCC,-4.472904422
GJDXAAHRTAAEAN-UHFFFAOYSA-N,,N#CCCN(Cc1cccnc1)C(=O)Nc1ccc2c(c1)-c1ccccc1S2(=O)=O,c1ccc2c(c1)-c3cc(ccc3S2(=O)=O)NC(=O)N(CCC#N)Cc4cccnc4,O=C(NC=1C=CC2=C(C1)C=3C=CC=CC3S2(=O)=O)N(CCC#N)CC=4C=CC=NC4,-5.8239087
GJHNTLQYACBIND-UHFFFAOYSA-N,1-HEXYL-4-METHOXYCARBONYL-2-PYRROLIDONE,CCCCCCN1CC(C(=O)OC)CC1=O,CCCCCCN1CC(CC1=O)C(=O)OC,O=C1N(CC(C1)C(=O)OC)CCCCCC,-1.246
GJJFMKBJSRMPLA-UHFFFAOYSA-N,,CCN(CC)C(=O)C1(c2ccccc2)CC1CN,CCN(CC)C(=O)C1(CC1CN)c2ccccc2,CCN(CC)C(=O)C1(CC1CN)C2=CC=CC=C2,0.5113
GJJSUPSPZIZYPM-UHFFFAOYSA-N,"1,4-DIOXACYCLOHEXADECANE-5,16-DIONE",O=C1CCCCCCCCCCC(=O)OCCO1,C1CCCCCC(=O)OCCOC(=O)CCCC1,O=C1CCCCCCCCCCC(=O)OCCO1,-3.5338792530000003
GJKGAPPUXSSCFI-UHFFFAOYSA-N,2-hydroxy-1-[4-(2-hydroxyethoxy)phenyl]-2-methylpropan-1-one,CC(C)(O)C(=O)c1ccc(OCCO)cc1,CC(C)(C(=O)c1ccc(cc1)OCCO)O,CC(C)(O)C(=O)C=1C=CC(=CC1)OCCO,-1.47
GJMAJNMNKQTERF-UHFFFAOYSA-N,,COc1cc2c(Nc3cnc(NC(=O)CCC4CC4)nc3)ncnc2cc1OCCCN1CCCCC1,COc1cc2c(cc1OCCCN3CCCCC3)ncnc2Nc4cnc(nc4)NC(=O)CCC5CC5,COC=1C=C2C(=NC=NC2=CC1OCCCN3CCCCC3)NC=4C=NC(=NC4)NC(=O)CCC5CC5,-4.8239087
GJMKEWQCBMBZCD-UHFFFAOYSA-N,"Phthalic acid, 3-nitro-, isopentyl ester",CC(C)CCOC(=O)c1c(C(=O)O)cccc1[N+](=O)[O-],CC(C)CCOC(=O)c1c(cccc1[N+](=O)[O-])C(=O)O,C1(=C(C=CC=C1C(=O)O)[N+](=O)[O-])C(=O)OCCC(C)C,-3.069
GJOSRMAVDXJBCZ-UHFFFAOYSA-N,"Butanoic acid, 3-oxo-, cyclohexyl ester",CC(=O)CC(=O)OC1CCCCC1,CC(=O)CC(=O)OC1CCCCC1,C(=O)(CC(=O)C)OC1CCCCC1,-2.904
GJPICJJJRGTNOD-UHFFFAOYSA-N,bosentan,COc1ccccc1Oc1c(NS(=O)(=O)c2ccc(C(C)(C)C)cc2)nc(-c2ncccn2)nc1OCCO,CC(C)(C)c1ccc(cc1)S(=O)(=O)Nc2c(c(nc(n2)c3ncccn3)OCCO)Oc4ccccc4OC,CC(C)(C)C1=CC=C(C=C1)S(=O)(=O)NC2=C(C(=NC(=N2)C3=NC=CC=N3)OCCO)OC4=CC=CC=C4OC,-5.741632131
GJQIMXVRFNLMTB-UHFFFAOYSA-N,NONYL ACETATE,CCCCCCCCCOC(C)=O,CCCCCCCCCOC(=O)C,CCCCCCCCCOC(=O)C,-4.470930325
GJQPMPFPNINLKP-UHFFFAOYSA-N,dichlorphenamide,NS(=O)(=O)c1cc(Cl)c(Cl)c(S(N)(=O)=O)c1,c1c(cc(c(c1S(=O)(=O)N)Cl)Cl)S(=O)(=O)N,C1=C(C=C(C(=C1S(=O)(=O)N)Cl)Cl)S(=O)(=O)N,-3.4845276060000003
GJSLOMWRLALDCT-UHFFFAOYSA-N,adinazolam,CN(C)Cc1nnc2n1-c1ccc(Cl)cc1C(c1ccccc1)=NC2,CN(C)Cc1nnc2n1-c3ccc(cc3C(=NC2)c4ccccc4)Cl,CN(C)CC1=NN=C2N1C3=C(C=C(C=C3)Cl)C(=NC2)C4=CC=CC=C4,-3.7202580660000004
GJSURZIOUXUGAL-UHFFFAOYSA-N,clonidine hydrochloride,Clc1cccc(Cl)c1NC1=NCCN1,c1cc(c(c(c1)Cl)NC2=NCCN2)Cl,ClC1=CC=CC(=C1NC2=NCCN2)Cl,-0.41341248799999997
GJUJVWHYRIAVRU-UHFFFAOYSA-N,,C#CCN(Cc1cc2c(NCCNC)nc(C)nc2cc1Br)c1ccc(C(=O)NCc2cccnc2)cc1,Cc1nc2cc(c(cc2c(n1)NCCNC)CN(CC#C)c3ccc(cc3)C(=O)NCc4cccnc4)Br,CNCCNC=1N=C(N=C2C1C=C(C(=C2)Br)CN(CC#C)C=3C=CC(=CC3)C(=O)NCC=4C=CC=NC4)C,-5.1487417
GJVCDPICSOSNIX-UHFFFAOYSA-N,,CC(=O)n1c(C)c(C)c2cc(NC(=O)CCc3ccncc3)ccc21,Cc1c(n(c2c1cc(cc2)NC(=O)CCc3ccncc3)C(=O)C)C,CC(=O)N1C(=C(C2=C1C=CC(=C2)NC(=O)CCC=3C=CN=CC3)C)C,-4.236572
GJYXGIIWJFZCLN-UHFFFAOYSA-N,"2,4-Octadione",CCCCC(=O)CC(C)=O,CCCCC(=O)CC(=O)C,CCCCC(=O)CC(=O)C,-1.56
GJYYXSDOKGEWNX-UHFFFAOYSA-N,"2,5-dimethylpyrano[5,6-f][1]benzoxol-7-one",Cc1cc2cc3c(C)cc(=O)oc3cc2o1,Cc1cc(=O)oc2c1cc3cc(oc3c2)C,CC1=CC2=CC3=C(C=C2O1)OC(=O)C=C3C,-5.2285
GKALEQBSSQTRDV-UHFFFAOYSA-N,,COc1cc2c(Nc3ccc(NC(=O)c4ccccc4)cc3)ncnc2cc1OCCNC(C)C,CC(C)NCCOc1cc2c(cc1OC)c(ncn2)Nc3ccc(cc3)NC(=O)c4ccccc4,COC=1C=C2C(=NC=NC2=CC1OCCNC(C)C)NC=3C=CC(=CC3)NC(=O)C=4C=CC=CC4,-3.9586072999999997
GKASDNZWUGIAMG-UHFFFAOYSA-N,(diethoxymethoxy)ethane,CCOC(OCC)OCC,CCOC(OCC)OCC,CCOC(OCC)OCC,-2.040760148
GKCBAIGFKIBETG-UHFFFAOYSA-N,Tetracaine,CCCCNc1ccc(C(=O)OCCN(C)C)cc1,CCCCNc1ccc(cc1)C(=O)OCCN(C)C,C(=O)(C=1C=CC(=CC1)NCCCC)OCCN(C)C,-3.0105
GKEUODMJRFDLJY-UHFFFAOYSA-N,1-Methylfluorene,Cc1cccc2c1Cc1ccccc1-2,Cc1cccc-2c1Cc3c2cccc3,CC=1C=CC=C2C1CC=3C2=CC=CC3,-5.22
GKEXXHZCNJWHTP-UHFFFAOYSA-N,,CCN1C(=O)CCc2cc(Sc3cccc(C4(O)CCOC(C)C4)c3)ccc21,CCN1c2ccc(cc2CCC1=O)Sc3cccc(c3)C4(CCOC(C4)C)O,CCN1C(=O)CCC2=C1C=CC(=C2)SC=3C=CC=C(C3)C4(CCOC(C4)C)O,-5.7746907
GKIRPKYJQBWNGO-UHFFFAOYSA-N,clomiphene citrate,CCN(CC)CCOc1ccc(/C(=C(\Cl)c2ccccc2)c2ccccc2)cc1,CCN(CC)CCOc1ccc(cc1)/C(=C(/c2ccccc2)\Cl)/c3ccccc3,CCN(CC)CCOC1=CC=C(C=C1)/C(=C(/C2=CC=CC=C2)\Cl)/C3=CC=CC=C3,-2.7314363010000005
GKJYHTGGXDEYSU-UHFFFAOYSA-N,"2,2,4-Pentanetricarboxylic acid",CC(CC(C)(C(=O)O)C(=O)O)C(=O)O,CC(CC(C)(C(=O)O)C(=O)O)C(=O)O,CC(CC(C)(C(=O)O)C(=O)O)C(=O)O,-0.102
GKKDCARASOJPNG-UHFFFAOYSA-N,metaldehyde;  acetaldehyde tetramer,CC1OC(C)OC(C)OC(C)O1,CC1OC(OC(OC(O1)C)C)C,O1C(OC(OC(OC1C)C)C)C,-2.9
GKKZMYDNDDMXSE-UHFFFAOYSA-N,ETHYL BENZOYLACETATE,CCOC(=O)CC(=O)c1ccccc1,CCOC(=O)CC(=O)c1ccccc1,O=C(OCC)CC(=O)C1=CC=CC=C1,-2.201
GKNKYGCFRKWNQB-UHFFFAOYSA-N,,COc1cc2ncc(C#N)c(Nc3ccc(Oc4ccccc4OC)cc3)c2cc1OC,COc1ccccc1Oc2ccc(cc2)Nc3c4cc(c(cc4ncc3C#N)OC)OC,COC=1C=CC=CC1OC=2C=CC(=CC2)NC=3C(=CN=C4C3C=C(C(=C4)OC)OC)C#N,-5.8239087
GKOORVATHBVNBA-UHFFFAOYSA-N,"Glycine, N-[N-(N-carbamoylglycyl)glycyl]-",NC(=O)NCC(=O)NCC(=O)NCC(=O)O,C(C(=O)NCC(=O)O)NC(=O)CNC(=O)N,NC(=O)NCC(=O)NCC(=O)NCC(=O)O,-1.35
GKOUJOVHOXHJQH-UHFFFAOYSA-N,,CCCCOC(=O)C(CCSC)NC(=O)c1ccc(NCC2CC(SC(=O)C(C)C)CN2)cc1-c1ccccc1C,CCCCOC(=O)C(CCSC)NC(=O)c1ccc(cc1c2ccccc2C)NCC3CC(CN3)SC(=O)C(C)C,CCCCOC(=O)C(CCSC)NC(=O)C=1C=CC(=CC1C=2C=CC=CC2C)NCC3CC(CN3)SC(=O)C(C)C,-5.853872
GKPNROMVVBCUIL-UHFFFAOYSA-N,,CN1CCN(Cc2cccc(C(=O)Nc3cc(NC(=O)c4cc(F)cc(N5CCOCC5)c4)ccc3F)c2)CC1,CN1CCN(CC1)Cc2cccc(c2)C(=O)Nc3cc(ccc3F)NC(=O)c4cc(cc(c4)F)N5CCOCC5,CN1CCN(CC1)CC=2C=CC=C(C2)C(=O)NC=3C=C(C=CC3F)NC(=O)C=4C=C(C=C(C4)N5CCOCC5)F,-3.7447275
GKSWMJAEMPEUSP-UHFFFAOYSA-N,,COCCCNS(=O)(=O)c1ccc(Nc2ncc(C#N)c(OC)n2)cc1,COCCCNS(=O)(=O)c1ccc(cc1)Nc2ncc(c(n2)OC)C#N,COCCCNS(=O)(=O)C=1C=CC(=CC1)NC=2N=CC(=C(N2)OC)C#N,-5.60206
GKTWGGQPFAXNFI-UHFFFAOYSA-N,clopidogrel bisulfate,COC(=O)[C@H](c1ccccc1Cl)N1CCc2sccc2C1,COC(=O)[C@H](c1ccccc1Cl)N2CCc3c(ccs3)C2,COC(=O)[C@H](C1=CC=CC=C1Cl)N2CCC3=C(C=CS3)C2,-5.623145875
GKUWSGFUAHRBGA-UHFFFAOYSA-N,,O=C(COc1cccc2cnccc12)Nc1ccc(C(=O)O)c(Cl)c1,c1cc2cnccc2c(c1)OCC(=O)Nc3ccc(c(c3)Cl)C(=O)O,OC(=O)C=1C=CC(=CC1Cl)NC(=O)COC=2C=CC=C3C2C=CN=C3,-3.298432
GKWANDAYJJASDT-UHFFFAOYSA-N,,COc1cc2c(Nc3ccc(F)c(Cl)c3)ncnc2cc1OCCCN(C)C1CCN(C)C1,CN1CCC(C1)N(C)CCCOc2cc3c(cc2OC)c(ncn3)Nc4ccc(c(c4)Cl)F,COC=1C=C2C(=NC=NC2=CC1OCCCN(C)C3CCN(C3)C)NC=4C=CC(=C(C4)Cl)F,-2.8860566000000003
GKXAVSBLVPBALM-UHFFFAOYSA-N,,NC(=O)Nc1cc(-c2ccccn2)sc1C(N)=O,c1ccnc(c1)c2cc(c(s2)C(=O)N)NC(=O)N,NC(=O)NC=1C=C(SC1C(=O)N)C=2C=CC=CN2,-3.7958800000000004
GLBLPMUBLHYFCW-UHFFFAOYSA-N,,COc1cc(OC)n2nc(NS(=O)(=O)c3c(C(F)(F)F)ccnc3OC)nc2n1,COc1cc(n2c(n1)nc(n2)NS(=O)(=O)c3c(ccnc3OC)C(F)(F)F)OC,C1(=C(C=CN=C1OC)C(F)(F)F)S(=O)(=O)NC=2N=C3N(N2)C(=CC(=N3)OC)OC,-2.133
GLDOVTGHNKAZLK-UHFFFAOYSA-N,octadecan-1-ol,CCCCCCCCCCCCCCCCCCO,CCCCCCCCCCCCCCCCCCO,OCCCCCCCCCCCCCCCCCC,-8.3909
GLFDLEXFOHUASB-UHFFFAOYSA-N,bis(trimethyl(tetradecyl)azanium) oxalate,CCCCCCCCCCCCCC[N+](C)(C)C,CCCCCCCCCCCCCC[N+](C)(C)C,CCCCCCCCCCCCCC[N+](C)(C)C,-2.898
GLFDXJBEJWBCQP-UHFFFAOYSA-N,4-methyl-2-[(2-nitrophenyl)diazenyl]phenol,CC1=C/C(=N\Nc2ccccc2[N+](=O)[O-])C(=O)C=C1,CC1=C/C(=N\Nc2ccccc2[N+](=O)[O-])/C(=O)C=C1,CC1=C/C(=N\NC=2C=CC=CC2[N+](=O)[O-])/C(=O)C=C1,-5.747797932
GLFJCEVWKWQSJP-UHFFFAOYSA-N,Methacycline,C=C1c2cccc(O)c2C(O)=C2C(=O)[C@]3(O)C(=O)/C(=C(/N)O)C(=O)[C@@H](N(C)C)[C@@H]3[C@@H](O)[C@H]12,CN(C)[C@H]1[C@@H]2[C@H]([C@@H]3C(=C)c4cccc(c4C(=C3C(=O)[C@@]2(C(=O)/C(=C(/N)\O)/C1=O)O)O)O)O,CN(C)[C@H]1[C@@H]2[C@H]([C@@H]3C(=C)C=4C=CC=C(C4C(=C3C(=O)[C@@]2(C(=O)/C(=C(/N)\O)/C1=O)O)O)O)O,-1.768
GLIMMBJQTXCOMG-UHFFFAOYSA-N,N-octylsulfonyloctane-1-sulfonamide,CCCCCCCCS(=O)(=O)NS(=O)(=O)CCCCCCCC,CCCCCCCCS(=O)(=O)NS(=O)(=O)CCCCCCCC,N(S(=O)(=O)CCCCCCCC)S(=O)(=O)CCCCCCCC,-2.92
GLKCOBIIZKYKFN-UHFFFAOYSA-N,"2-AMINO-4,7(3H,8H)-PTERIDINEDIONE",Nc1nc2[nH]c(=O)cnc2c(=O)[nH]1,c1c(=O)[nH]c2c(n1)c(=O)[nH]c(n2)N,NC1=NC2=C(N=CC(=O)N2)C(=O)N1,-4.552
GLLPUTYLZIKEGF-UHFFFAOYSA-N,ridogrel,O=C(O)CCCCO/N=C(/c1cccnc1)c1cccc(C(F)(F)F)c1,c1cc(cc(c1)C(F)(F)F)/C(=N\OCCCCC(=O)O)/c2cccnc2,C1=CC(=CC(=C1)C(F)(F)F)/C(=N\OCCCCC(=O)O)/C2=CN=CC=C2,-4.26284249
GLLYQJVICPAIGW-UHFFFAOYSA-N,"2-[(1-amino-4-hydroxy-9,10-dioxo-9,10-dihydroanthracen-2-yl)oxy]ethyl phenyl carbonate",Nc1c(OCCOC(=O)Oc2ccccc2)cc(O)c2c1C(=O)c1ccccc1C2=O,c1ccc(cc1)OC(=O)OCCOc2cc(c3c(c2N)C(=O)c4ccccc4C3=O)O,NC=1C(=CC(=C2C1C(=O)C3=C(C=CC=C3)C2=O)O)OCCOC(=O)OC=4C=CC=CC4,-8.054207656
GLMMRFJDEYRQSI-UHFFFAOYSA-N,,COc1cc2c(Nc3ccc(F)c(Cl)c3)ncnc2cc1N(C)CCN,CN(CCN)c1cc2c(cc1OC)c(ncn2)Nc3ccc(c(c3)Cl)F,COC=1C=C2C(=NC=NC2=CC1N(C)CCN)NC=3C=CC(=C(C3)Cl)F,-3.0222764
GLNQCTGGLIXRRJ-UHFFFAOYSA-N,"4-Isoxazolecarboxylic acid, 3-methyl-5-phenyl-",Cc1noc(-c2ccccc2)c1C(=O)O,Cc1c(c(on1)c2ccccc2)C(=O)O,C1(=C(ON=C1C)C2=CC=CC=C2)C(=O)O,-3.1839999999999997
GLPRRTOTBSXXJH-UHFFFAOYSA-N,,NC(=O)Nc1sc(-c2ccc(-n3ccnc3)cc2)cc1C(N)=O,c1cc(ccc1c2cc(c(s2)NC(=O)N)C(=O)N)n3ccnc3,NC(=O)NC=1SC(=CC1C(=O)N)C=2C=CC(=CC2)N3C=CN=C3,-5.4436975
GLPZEHFBLBYFHN-UHFFFAOYSA-N,Ethychlozate,CCOC(=O)Cc1[nH]nc2ccc(Cl)cc12,CCOC(=O)Cc1c2cc(ccc2n[nH]1)Cl,N1=C(C2=CC(=CC=C2N1)Cl)CC(=O)OCC,-3.0258
GLQRLODDQFDGOB-UHFFFAOYSA-N,,COc1cc2c(Nc3ccc(NC(=O)c4ccccc4)cc3)ncnc2cc1OCCNCCS,COc1cc2c(cc1OCCNCCS)ncnc2Nc3ccc(cc3)NC(=O)c4ccccc4,COC=1C=C2C(=NC=NC2=CC1OCCNCCS)NC=3C=CC(=CC3)NC(=O)C=4C=CC=CC4,-4.2358239
GLRJFMWWBYTJKW-UHFFFAOYSA-N,,CCn1c2ccccc2c2cc(NC(C)=O)ccc21,CCn1c2ccccc2c3c1ccc(c3)NC(=O)C,CCN1C=2C=CC=CC2C3=C1C=CC(=C3)NC(=O)C,-5.251812
GLUMVGDTTZQHAV-UHFFFAOYSA-N,,C#CCN(Cc1cc2c(O)nc(N)nc2cc1C)c1ccc(C(=O)NC(CCc2nnn[nH]2)C(=O)O)c(F)c1,Cc1cc2c(cc1CN(CC#C)c3ccc(c(c3)F)C(=O)NC(CCc4[nH]nnn4)C(=O)O)c(nc(n2)N)O,CC=1C=C2N=C(N=C(C2=CC1CN(CC#C)C=3C=CC(=C(C3)F)C(=O)NC(CCC4=NN=NN4)C(=O)O)O)N,-4.1592668
GLVAUDGFNGKCSF-UHFFFAOYSA-N,mercaptopurine,S=c1[nH]cnc2[nH]cnc12,c1[nH]c2c(n1)c(=S)[nH]cn2,S=C1NC=NC2=C1N=CN2,-1.636701397
GLVDLLVMSDGVDA-UHFFFAOYSA-N,"2-[(1-amino-4-hydroxy-9,10-dioxo-9,10-dihydroanthracen-2-yl)oxy]ethyl ethyl carbonate",CCOC(=O)OCCOc1cc(O)c2c(c1N)C(=O)c1ccccc1C2=O,CCOC(=O)OCCOc1cc(c2c(c1N)C(=O)c3ccccc3C2=O)O,CCOC(=O)OCCOC=1C=C(C2=C(C1N)C(=O)C3=C(C=CC=C3)C2=O)O,-9.219764781
GLVVKKSPKXTQRB-UHFFFAOYSA-N,Vinyl laurate,C=COC(=O)CCCCCCCCCCC,CCCCCCCCCCCC(=O)OC=C,CCCCCCCCCCCC(=O)OC=C,-5.354899843
GLWLDMPGCLSWNL-UHFFFAOYSA-N,,CC(O)(C(=O)Nc1ccc(S(=O)(=O)c2ccc(C(=O)N3CCS(=O)(=O)CC3)cc2)cc1Cl)C(F)(F)F,CC(C(=O)Nc1ccc(cc1Cl)S(=O)(=O)c2ccc(cc2)C(=O)N3CCS(=O)(=O)CC3)(C(F)(F)F)O,CC(O)(C(=O)NC=1C=CC(=CC1Cl)S(=O)(=O)C=2C=CC(=CC2)C(=O)N3CCS(=O)(=O)CC3)C(F)(F)F,-4.853872