inchikey,Name,SMILES_stand,SMILES,kekSmiles,logS
GUQMUFCFDMUPMN-UHFFFAOYSA-N,N1-(3-CHLORO-2-METHOXYPHENYL)SULFANILAMIDE; 1-Sulfanilamido-3-chloro-2-methoxybenzene; 1-Sulfa-3-chloro-2-methoxybenzene,COc1c(Cl)cccc1NS(=O)(=O)c1ccc(N)cc1,COc1c(cccc1Cl)NS(=O)(=O)c2ccc(cc2)N,COC1=C(C=CC=C1Cl)NS(=O)(=O)C2=CC=C(C=C2)N,-4.15
GUQQNFZJJXURDL-UHFFFAOYSA-N,1-[(E)-2-(4-methoxy-2-nitrophenyl)diazen-1-yl]naphthalen-2-ol,COc1ccc(N/N=C2\C(=O)C=Cc3ccccc32)c([N+](=O)[O-])c1,COc1ccc(c(c1)[N+](=O)[O-])N/N=C\2/c3ccccc3C=CC2=O,COC=1C=CC(=C(C1)[N+](=O)[O-])N/N=C/2\C(=O)C=CC3=C2C=CC=C3,-7.991051256
GUQROFQGBWQOIT-UHFFFAOYSA-N,,COC(=O)C(NC(=O)C(CC(C)C)NC(=O)c1cc2cc(S(C)(=O)=O)ccc2[nH]1)C(C)C,CC(C)CC(C(=O)NC(C(C)C)C(=O)OC)NC(=O)c1cc2cc(ccc2[nH]1)S(=O)(=O)C,COC(=O)C(NC(=O)C(CC(C)C)NC(=O)C1=CC=2C=C(C=CC2N1)S(=O)(=O)C)C(C)C,-3.8860566
GURYYNWDVKXZAT-UHFFFAOYSA-N,tetrahydro-4-methyl-2-propyl-2h-pyran-4-yl acetate,CCCC1C[C@@](C)(OC(C)=O)CCO1,CCCC1C[C@@](CCO1)(C)OC(=O)C,O1CCC(CC1CCC)(C)OC(=O)C,-2.204723233
GUSPTVDOABJBAU-UHFFFAOYSA-N,,N#Cc1ccc2[nH]cc(CC(=O)N3CCN(c4ncnc5ccsc45)CC3)c2c1,c1cc2c(cc1C#N)c(c[nH]2)CC(=O)N3CCN(CC3)c4c5c(ccs5)ncn4,O=C(CC1=CNC2=C1C=C(C=C2)C#N)N3CCN(CC3)C=4N=CN=C5C4SC=C5,-5.9625735
GUTBFVAYSRGZOQ-UHFFFAOYSA-N,,NS(=O)(=O)c1ccc(C(=O)c2ccc(CN3CCOCC3)cc2)s1,c1cc(ccc1CN2CCOCC2)C(=O)c3ccc(s3)S(=O)(=O)N,C1=C(C=CC(=C1)C(=O)C2=CC=C(S2)S(=O)(=O)N)CN3CCOCC3,-1.4809999999999999
GUUHEFWFQMCOFC-UHFFFAOYSA-N,,N#Cc1ccccc1Oc1nc(N)n2nc(-c3ccco3)nc2n1,c1ccc(c(c1)C#N)Oc2nc(n3c(n2)nc(n3)c4ccco4)N,NC1=NC(=NC=2N1N=C(N2)C3=CC=CO3)OC=4C=CC=CC4C#N,-4.7721133
GUUHFMWKWLOQMM-UHFFFAOYSA-N,Hexyl cinnamic aldehyde,CCCCCC/C(C=O)=C/c1ccccc1,CCCCCC/C(=C/c1ccccc1)/C=O,O=C/C(=C\C1=CC=CC=C1)/CCCCCC,-4.896
GUVLYNGULCJVDO-UHFFFAOYSA-N,S-ethyl dipropylthiocarbamate,CCCN(CCC)C(=O)SCC,CCCN(CCC)C(=O)SCC,S(C(=O)N(CCC)CCC)CC,-2.703087202
GUXHBMASAHGULD-UHFFFAOYSA-N,demeclocycline,CN(C)[C@@H]1C(=O)C(C(N)=O)=C(O)[C@@]2(O)C(=O)C3=C(O)c4c(O)ccc(Cl)c4[C@@H](O)[C@H]3C[C@@H]12,CN(C)[C@H]1[C@@H]2C[C@@H]3[C@@H](c4c(ccc(c4C(=C3C(=O)[C@@]2(C(=C(C1=O)C(=O)N)O)O)O)O)Cl)O,ClC1=C2C(=C(C=C1)O)C(=C3C(C2O)CC4C(C3=O)(C(=C(C(=O)C4N(C)C)C(=O)N)O)O)O,-2.5056107880000003
GVBHRNIWBGTNQA-UHFFFAOYSA-N,2-METHOXY-4-NITROANILINE,COc1cc([N+](=O)[O-])ccc1N,COc1cc(ccc1N)[N+](=O)[O-],COC=1C=C(C=CC1N)[N+](=O)[O-],-3.2047563689999996
GVDRRZOORHCTAN-UHFFFAOYSA-N,,O=C(NC(Cc1ccccc1)C(O)C(=O)N1CC(O)C(O)C1)c1cc2cc(Cl)ccc2[nH]1,c1ccc(cc1)CC(C(C(=O)N2CC(C(C2)O)O)O)NC(=O)c3cc4cc(ccc4[nH]3)Cl,OC(C(CC=1C=CC=CC1)NC(=O)C2=CC=3C=C(C=CC3N2)Cl)C(=O)N4CC(C(C4)O)O,-3.2676062000000003
GVEAYVLWDAFXET-UHFFFAOYSA-N,pancuronium bromide,CC(=O)O[C@H]1C[C@@H]2CC[C@@H]3[C@H](CC[C@@]4(C)[C@H]3C[C@H]([N+]3(C)CCCCC3)[C@@H]4OC(C)=O)[C@@]2(C)C[C@@H]1[N+]1(C)CCCCC1,CC(=O)O[C@H]1C[C@@H]2CC[C@@H]3[C@@H]([C@]2(C[C@@H]1[N+]4(CCCCC4)C)C)CC[C@]5([C@H]3C[C@@H]([C@@H]5OC(=O)C)[N+]6(CCCCC6)C)C,CC(=O)O[C@H]1C[C@@H]2CC[C@@H]3[C@@H]([C@]2(C[C@@H]1[N+]4(CCCCC4)C)C)CC[C@]5([C@H]3C[C@@H]([C@@H]5OC(=O)C)[N+]6(CCCCC6)C)C,-6.864908409
GVEPBJHOBDJJJI-UHFFFAOYSA-N,Fluoranthene,c1ccc2c(c1)-c1cccc3cccc-2c13,c1ccc-2c(c1)-c3cccc4c3c2ccc4,C=1C=CC2=C(C1)C=3C=CC=C4C3C2=CC=C4,-5.968532
GVFPNFBQKJGGRB-UHFFFAOYSA-N,,N#Cc1cnc(Nc2ccc(S(=O)(=O)NCC3CC3)cc2)nc1N,c1cc(ccc1Nc2ncc(c(n2)N)C#N)S(=O)(=O)NCC3CC3,NC=1N=C(N=CC1C#N)NC=2C=CC(=CC2)S(=O)(=O)NCC3CC3,-5.39794
GVGLGOZIDCSQPN-UHFFFAOYSA-N,Heroin,CC(=O)Oc1ccc2c3c1O[C@H]1[C@@H](OC(C)=O)C=C[C@H]4[C@@H](C2)N(C)CC[C@]314,CC(=O)Oc1ccc2c3c1O[C@@H]4[C@]35CCN([C@H](C2)[C@@H]5C=C[C@@H]4OC(=O)C)C,O1C2C34CCN(C(C3C=CC2OC(=O)C)CC=5C4=C1C(=CC5)OC(=O)C)C,-2.7969999999999997
GVHDBIMXGLVKLM-UHFFFAOYSA-N,,Cc1cc(NC(=O)N(C)C)cc(C)c1Br,Cc1cc(cc(c1Br)C)NC(=O)N(C)C,BrC=1C(=CC(=CC1C)NC(=O)N(C)C)C,-3.673
GVHUQGJSHAWLHX-UHFFFAOYSA-N,,Cc1ccccc1NC(=O)Nc1ccc(CC(=O)Nc2ccc(OC3CCCC3)c(OCC(C)CC(=O)O)c2)cc1,Cc1ccccc1NC(=O)Nc2ccc(cc2)CC(=O)Nc3ccc(c(c3)OCC(C)CC(=O)O)OC4CCCC4,CC(COC=1C=C(C=CC1OC2CCCC2)NC(=O)CC=3C=CC(=CC3)NC(=O)NC=4C=CC=CC4C)CC(=O)O,-4.7447275
GVJHHUAWPYXKBD-UHFFFAOYSA-N,"2,5,7,8-tetramethyl-2-(4,8,12-trimethyltridecyl)-3,4-dihydro-2H-1-benzopyran-6-ol",Cc1c(C)c2c(c(C)c1O)CC[C@@](C)(CCC[C@H](C)CCC[C@H](C)CCCC(C)C)O2,Cc1c(c2c(c(c1O)C)CC[C@@](O2)(C)CCC[C@H](C)CCC[C@H](C)CCCC(C)C)C,CC(C)CCC[C@@H](C)CCC[C@@H](C)CCC[C@@]1(CCC=2C(=C(C(=C(C2O1)C)C)O)C)C,-8.520248661
GVMIXAYWPARWDD-UHFFFAOYSA-N,"Propanoic acid, 2-hydroxy-, 2-(hexyloxy)-1-methy",CCCCCCOC(=O)C(C)OC(=O)C(C)O,CCCCCCOC(=O)C(C)OC(=O)C(C)O,CCCCCCOC(=O)C(C)OC(=O)C(C)O,-2.488
GVNQVWJYDXOLST-UHFFFAOYSA-N,5-hydroxyquinoline,O=c1cccc2[nH]cccc1-2,c1cc(=O)c-2ccc[nH]c2c1,O=C1C2=CC=CNC2=CC=C1,-2.54
GVNVAWHJIKLAGL-UHFFFAOYSA-N,"CYCLOHEXANONE, 2-(1-CYCLOHEXEN-1-YL)-",O=C1CCCCC1C1=CCCCC1,C1CCC(=CC1)C2CCCCC2=O,O=C1CCCCC1C2=CCCCC2,-2.7739999999999996
GVNWZKBFMFUVNX-UHFFFAOYSA-N,HEXANEDIAMIDE,NC(=O)CCCCC(N)=O,C(CCC(=O)N)CC(=O)N,C(=O)(N)CCCCC(=O)N,-1.515
GVNYQGKVULMAET-UHFFFAOYSA-N,"NAPROXEN,  DERIVAT 3B",COc1ccc2cc(C(C)C(=O)OCCOC(=O)C(N)CC(C)C)ccc2c1,CC(C)CC(C(=O)OCCOC(=O)C(C)c1ccc2cc(ccc2c1)OC)N,COC1=CC=C2C=C(C=CC2=C1)C(C)C(=O)OCCOC(=O)C(N)CC(C)C,-3.82
GVQFENGEAYTANQ-UHFFFAOYSA-N,,CN(C)CC(O)COc1ccc(Nc2ncc(Br)c(Nc3cccc(C(F)(F)F)c3)n2)cc1,CN(C)CC(COc1ccc(cc1)Nc2ncc(c(n2)Nc3cccc(c3)C(F)(F)F)Br)O,CN(C)CC(O)COC=1C=CC(=CC1)NC=2N=CC(=C(N2)NC=3C=CC=C(C3)C(F)(F)F)Br,-4.975391
GVQKFZZVHLFZMM-UHFFFAOYSA-N,RTI 22,Cc1ccc2c(c1)C(=O)Nc1cc(N)ccc1O2,Cc1ccc2c(c1)C(=O)Nc3cc(ccc3O2)N,C1(=CC=C2C(=C1)NC(=O)C3=C(C=CC(=C3)C)O2)N,-4.87
GVRAFHMHIIIMFZ-UHFFFAOYSA-N,"1H-Purine-2,6-dione, 3,7,8,9-tetrahydro-3-methyl",Cn1c(=O)[nH]c(=O)c2[nH]c(=S)[nH]c21,Cn1c2c(c(=O)[nH]c1=O)[nH]c(=S)[nH]2,C12=C(C(=O)NC(=O)N1C)NC(=S)N2,-1.899
GVRDEFXTGCRQFH-UHFFFAOYSA-N,,COCCCNS(=O)(=O)c1ccc(Nc2ncc(C#N)c(OCC3CC3)n2)cc1,COCCCNS(=O)(=O)c1ccc(cc1)Nc2ncc(c(n2)OCC3CC3)C#N,COCCCNS(=O)(=O)C=1C=CC(=CC1)NC=2N=CC(=C(N2)OCC3CC3)C#N,-6.0177288
GVRIYIMNJGULCZ-UHFFFAOYSA-N,Melilotoside,O=C(O)/C=C/c1ccccc1OC1OC(CO)C(O)C(O)C1O,c1ccc(c(c1)/C=C/C(=O)O)OC2C(C(C(C(O2)CO)O)O)O,O=C(O)/C=C/C1=CC=CC=C1OC2OC(C(C(C2O)O)O)CO,-1.514
GVRNUDCCYWKHMV-UHFFFAOYSA-N,"Hexanedioic acid, bis(2-methoxyethyl) ester",COCCOC(=O)CCCCC(=O)OCCOC,COCCOC(=O)CCCCC(=O)OCCOC,COCCOC(=O)CCCCC(=O)OCCOC,-1.26625
GVTLAVKAVSKBKK-UHFFFAOYSA-N,PORPHAZINAMIDE,O=C(NCN1CCOCC1)c1cnccn1,c1cnc(cn1)C(=O)NCN2CCOCC2,C(=O)(C=1N=CC=NC1)NCN2CCOCC2,0.17600000000000002
GVYVHZKTSVDMNT-UHFFFAOYSA-N,"2,3-DIHYDRO-1,2-BENZISOTHIAZOLE-1,1-DIOXIDE",O=S1(=O)NCc2ccccc21,c1ccc2c(c1)CNS2(=O)=O,S1(=O)(=O)NCC2=C1C=CC=C2,-1.5209
GVZDIJGBXSDSEP-UHFFFAOYSA-N,"(2R)-6-fluoro-2-[(2R)-oxiran-2-yl]-3,4-dihydro-2H-1-benzopyran; (2R)-6-fluoro-2-[(2S)-oxiran-2-yl]-3,4-dihydro-2H-1-benzopyran; (2S)-6-fluoro-2-[(2R)-oxiran-2-yl]-3,4-dihydro-2H-1-benzopyran; (2S)-6-fluoro-2-[(2S)-oxiran-2-yl]-3,4-dihydro-2H-1-benzopyran",Fc1ccc2c(c1)CC[C@@H]([C@@H]1CO1)O2,c1cc2c(cc1F)CC[C@H](O2)[C@@H]3CO3,FC=1C=CC2=C(C1)CC[C@H](O2)[C@@H]3CO3,-3.052050589
GVZNXUAPPLHUOM-UHFFFAOYSA-N,Dowanol TPM,COCC(C)OCC(C)OC(C)CO,CC(CO)OC(C)COC(C)COC,O(C(COC(COC)C)C)C(CO)C,0.6855
GVZRBINZIGHUGR-UHFFFAOYSA-N,,CC(C)CCNC(=O)C1CC(C(=O)O)C(c2ccccc2)N1C(=O)c1cc(F)cc(F)c1,CC(C)CCNC(=O)C1CC(C(N1C(=O)c2cc(cc(c2)F)F)c3ccccc3)C(=O)O,CC(C)CCNC(=O)C1CC(C(N1C(=O)C=2C=C(C=C(C2)F)F)C=3C=CC=CC3)C(=O)O,-2.2365720000000002
GVZRFBAVRVQCFX-UHFFFAOYSA-N,,CCCSc1nc(NC2CC2c2ccccc2)c2nnn(C3CC(C(=O)NCCCN)C(O)C3O)c2n1,CCCSc1nc(c2c(n1)n(nn2)C3CC(C(C3O)O)C(=O)NCCCN)NC4CC4c5ccccc5,C=1(C=CC=CC1)C2C(C2)NC=3N=C(N=C4C3N=NN4C5CC(C(C5O)O)C(=O)NCCCN)SCCC,-5.001374299999999
GWAXHYDZVIIKEH-UHFFFAOYSA-N,,COc1ccc(-n2cc(C(=O)O)c(=O)cc2-c2ccc(C(F)(F)F)cc2)cc1,COc1ccc(cc1)n2cc(c(=O)cc2c3ccc(cc3)C(F)(F)F)C(=O)O,COC=1C=CC(=CC1)N2C=C(C(=O)C=C2C=3C=CC(=CC3)C(F)(F)F)C(=O)O,-3.8239087
GWBJAJHNRFKJON-UHFFFAOYSA-N,Me (1-(4-chloro)phenylsulfonyl) cyclobutane carb,COC(=O)C1(S(=O)(=O)c2ccc(Cl)cc2)CCC1,COC(=O)C1(CCC1)S(=O)(=O)c2ccc(cc2)Cl,S(=O)(=O)(C1(CCC1)C(=O)OC)C2=CC=C(C=C2)Cl,-3.0
GWBJFWYXPNMGPG-UHFFFAOYSA-N,,Cc1ccccc1NC(=O)Nc1ccc(NC(=O)OCc2cccc(OCC(=O)O)c2)c(C)c1,Cc1ccccc1NC(=O)Nc2ccc(c(c2)C)NC(=O)OCc3cccc(c3)OCC(=O)O,CC=1C=CC=CC1NC(=O)NC=2C=CC(=C(C2)C)NC(=O)OCC=3C=CC=C(C3)OCC(=O)O,-5.09691
GWCCFAFCQHECBM-UHFFFAOYSA-N,"2,2-Dimethyl-4-phenylpentanenitrile",CC(CC(C)(C)C#N)c1ccccc1,CC(CC(C)(C)C#N)c1ccccc1,CC(CC(C)(C)C#N)C=1C=CC=CC1,-3.235039408
GWDNDNTTXIIXRS-UHFFFAOYSA-N,"4-naphthalen-2-yl-1,3-thiazol-2-amine",Nc1nc(-c2ccc3ccccc3c2)cs1,c1ccc2cc(ccc2c1)c3csc(n3)N,NC=1SC=C(N1)C=2C=CC=3C=CC=CC3C2,-4.849771126
GWDYJKXSUSPLEA-UHFFFAOYSA-N,"2-Phenyl-3,1-benzoxazin-4-one",O=c1nc(-c2ccccc2)oc2ccccc12,c1ccc(cc1)c2nc(=O)c3ccccc3o2,O=C1N=C(OC=2C1=CC=CC2)C=3C=CC=CC3,-4.61
GWECBZNKLJHJLV-UHFFFAOYSA-N,,CCCn1c(C(C)N(C)C(=O)COc2cccc(C)c2C)nc2ccccc21,CCCn1c2ccccc2nc1C(C)N(C)C(=O)COc3cccc(c3C)C,CCCN1C(=NC2=C1C=CC=C2)C(C)N(C)C(=O)COC=3C=CC=C(C3C)C,-4.5686362
GWEHVDNNLFDJLR-UHFFFAOYSA-N,"diphenylurea, sym",O=C(Nc1ccccc1)Nc1ccccc1,c1ccc(cc1)NC(=O)Nc2ccccc2,O=C(NC=1C=CC=CC1)NC=2C=CC=CC2,-3.15
GWGGYWFWMFMBKT-UHFFFAOYSA-N,"Acetamide, N-(4-ethoxy-2-methylphenyl)-",CCOc1ccc(NC(C)=O)c(C)c1,CCOc1ccc(c(c1)C)NC(=O)C,N(C=1C(=CC(=CC1)OCC)C)C(=O)C,-1.839
GWGLGTKSTGSWGQ-UHFFFAOYSA-N,"2-Butenoic acid, 4-[(aminocarbonyl)amino]-4-oxo-",NC(=O)NC(=O)/C=C/C(=O)O,C(=C/C(=O)O)\C(=O)NC(=O)N,O=C(O)/C=C/C(=O)NC(=O)N,-1.92
GWHSPQBIXQGAHG-UHFFFAOYSA-N,,O=C(Cc1c[nH]c2ccc(F)cc12)N1CCN(c2ncnc3ccsc23)CC1,c1cc2c(cc1F)c(c[nH]2)CC(=O)N3CCN(CC3)c4c5c(ccs5)ncn4,FC=1C=CC=2NC=C(C2C1)CC(=O)N3CCN(CC3)C=4N=CN=C5C4SC=C5,-5.5030704
GWIAAIUASRVOIA-UHFFFAOYSA-N,2-amino-1-naphthalenesulfonic acid; tobias acid,Nc1ccc2ccccc2c1S(=O)(=O)O,c1ccc2c(c1)ccc(c2S(=O)(=O)O)N,NC1=C(C2=CC=CC=C2C=C1)S(=O)(=O)O,-1.7180000000000002
GWKWFAXDZUGTRV-UHFFFAOYSA-N,,CCCCNC(=O)C(CC(C)C)CC(O)C(CC1CCCCC1)NC(=O)C(Cc1cccnc1)c1nnc2c(CCC)nc(-c3cccnc3)cn12,CCCCNC(=O)C(CC(C)C)CC(C(CC1CCCCC1)NC(=O)C(Cc2cccnc2)c3nnc4n3cc(nc4CCC)c5cccnc5)O,CCCCNC(=O)C(CC(C)C)CC(O)C(CC1CCCCC1)NC(=O)C(CC=2C=CC=NC2)C3=NN=C4N3C=C(N=C4CCC)C=5C=CC=NC5,-5.5670307
GWLLTEXUIOFAFE-UHFFFAOYSA-N,,CC(C)c1ccc2cc(C(C)C)ccc2c1,CC(C)c1ccc2cc(ccc2c1)C(C)C,C12=C(C=C(C=C1)C(C)C)C=CC(=C2)C(C)C,-4.2860000000000005
GWOFUCIGLDBNKM-UHFFFAOYSA-N,glafenine hydrochloride,O=C(OCC(O)CO)c1ccccc1Nc1ccnc2cc(Cl)ccc12,c1ccc(c(c1)C(=O)OCC(CO)O)Nc2ccnc3c2ccc(c3)Cl,OCC(O)COC(=O)C=1C=CC=CC1NC=2C=CN=C3C2C=CC(=C3)Cl,-4.55319
GWPAMBXJZVKJRE-UHFFFAOYSA-N,,NS(=O)(=O)c1ccc(-c2cc3cc(C(=O)NCc4ccncc4)ccc3o2)cc1,c1cc(ccc1c2cc3cc(ccc3o2)C(=O)NCc4ccncc4)S(=O)(=O)N,NS(=O)(=O)C=1C=CC(=CC1)C2=CC=3C=C(C=CC3O2)C(=O)NCC=4C=CN=CC4,-4.5850267
GWQOYRSARAWVTC-UHFFFAOYSA-N,"[1,3(or 1,4)-phenylenebis(1-methylethylidene)]bis[tert-butyl] peroxide",CC(C)(C)OOC(C)(C)c1ccc(C(C)(C)OOC(C)(C)C)cc1,CC(C)(C)OOC(C)(C)c1ccc(cc1)C(C)(C)OOC(C)(C)C,CC(C)(C)OOC(C)(C)C=1C=CC(=CC1)C(C)(C)OOC(C)(C)C,-5.7371515870000005
GWRAAKHIYCBJPA-UHFFFAOYSA-N,sodium; 4-(5-chloro-2-oxido-4-sulfamoylphenyl)diazenyl-5-methyl-2-phenylpyrazol-3-olate; chromium(+3) cation,Cc1nn(-c2ccccc2)c(O)c1/N=N/c1cc(Cl)c(S(N)(=O)=O)cc1O,Cc1c(c(n(n1)c2ccccc2)O)/N=N/c3cc(c(cc3O)S(=O)(=O)N)Cl,CC1=NN(C(=C1/N=N/C=2C=C(C(=CC2O)S(=O)(=O)N)Cl)O)C=3C=CC=CC3,-2.6922354489999996
GWSQAGVGSHXRJK-UHFFFAOYSA-N,"4-amino-5-methoxy-N,2-dimethylbenzenesulfonamide",CNS(=O)(=O)c1cc(OC)c(N)cc1C,Cc1cc(c(cc1S(=O)(=O)NC)OC)N,CNS(=O)(=O)C=1C=C(C(=CC1C)N)OC,-2.57697168
GWUSZQUVEVMBPI-UHFFFAOYSA-N,Nimetazepam,CN1C(=O)CN=C(c2ccccc2)c2cc([N+](=O)[O-])ccc21,CN1c2ccc(cc2C(=NCC1=O)c3ccccc3)[N+](=O)[O-],O=[N+]([O-])C=1C=C2C(=CC1)N(C(=O)CN=C2C=3C=CC=CC3)C,-3.8
GWYVTXHULIXIAY-UHFFFAOYSA-N,"3,6-diethylpiperazine-2,5-dione",CCC1NC(=O)C(CC)NC1=O,CCC1C(=O)NC(C(=O)N1)CC,N1C(=O)C(NC(=O)C1CC)CC,-1.712
GWZCCUDJHOGOSO-UHFFFAOYSA-N,Diphenic_Acid,O=C(O)c1ccccc1-c1ccccc1C(=O)O,c1ccc(c(c1)c2ccccc2C(=O)O)C(=O)O,OC(=O)C=1C=CC=CC1C=2C=CC=CC2C(=O)O,-2.28
GWZYSXKZOOVIDP-UHFFFAOYSA-N,,CN(C)/C=C1\OC(=O)C(C#N)=C1c1ccccc1,CN(C)/C=C\1/C(=C(C(=O)O1)C#N)c2ccccc2,C1=CC=CC=C1C\2=C(C(=O)O/C2=C\N(C)C)C#N,-1.123
GXAMYUGOODKVRM-UHFFFAOYSA-N,FLURENOL,O=C(O)C1(O)c2ccccc2-c2ccccc21,c1ccc2c(c1)-c3ccccc3[C@]2(C(=O)O)O,OC(=O)[C@]1(C=2C=CC=CC2C3=C1C=CC=C3)O,-1.96585
GXASXMDRVLQPJP-UHFFFAOYSA-N,,CCn1c2ccccc2c2cc(NC(=O)C(C)(C)N)ccc21,CCn1c2ccccc2c3c1ccc(c3)NC(=O)C(C)(C)N,CCN1C=2C=CC=CC2C3=C1C=CC(=C3)NC(=O)C(C)(C)N,-2.4202164
GXBGQMQGJQLSEN-UHFFFAOYSA-N,,COc1cc2c(NC(=N)Nc3c(F)cccc3F)ncnc2cc1OCCCN1CCCC1,COc1cc2c(cc1OCCCN3CCCC3)ncnc2NC(=N)Nc4c(cccc4F)F,COC=1C=C2C(=NC=NC2=CC1OCCCN3CCCC3)NC(=N)NC=4C(=CC=CC4F)F,-2.5528419999999996
GXBTYOQGQXQWOE-UHFFFAOYSA-N,4-(4-hydroxyphenyl)iminopentan-2-one,CC(=O)C/C(C)=N/c1ccc(O)cc1,C/C(=N\c1ccc(cc1)O)/CC(=O)C,CC(=O)C/C(=N/C1=CC=C(C=C1)O)/C,-3.5875
GXCDLJXPZVCHBX-UHFFFAOYSA-N,MEPARFYNOL CARBAMATE,C#CC(C)(CC)OC(N)=O,CCC(C)(C#C)OC(=O)N,CCC(C)(OC(=O)N)C#C,-0.946
GXDALQBWZGODGZ-UHFFFAOYSA-N,astemizole,COc1ccc(CCN2CCC(Nc3nc4ccccc4n3Cc3ccc(F)cc3)CC2)cc1,COc1ccc(cc1)CCN2CCC(CC2)Nc3nc4ccccc4n3Cc5ccc(cc5)F,FC1=CC=C(C=C1)CN2C(=NC=3C2=CC=CC3)NC4CCN(CC4)CCC5=CC=C(C=C5)OC,-7.175
GXEKYRXVRROBEV-UHFFFAOYSA-N,"endothall; 7-oxabicyclo[2.2.1]heptan-2,3-dicarboxylic  acid",O=C(O)C1C2CCC(O2)C1C(=O)O,C1CC2C(C(C1O2)C(=O)O)C(=O)O,OC(=O)C1C2CCC(O2)C1C(=O)O,-0.27
GXENDNINAWQOAL-UHFFFAOYSA-N,,Cc1cc(C)cc(NC(=O)N(C)C)c1,Cc1cc(cc(c1)NC(=O)N(C)C)C,O=C(NC1=CC(=CC(=C1)C)C)N(C)C,-2.2230000000000003
GXGRXACVYDBYQP-UHFFFAOYSA-N,,Cc1ccc(Cl)c(Nc2cc(Nc3ccc(C(=O)NCCN4CCOCC4)cc3)ncn2)c1,Cc1ccc(c(c1)Nc2cc(ncn2)Nc3ccc(cc3)C(=O)NCCN4CCOCC4)Cl,CC=1C=CC(=C(C1)NC=2C=C(N=CN2)NC=3C=CC(=CC3)C(=O)NCCN4CCOCC4)Cl,-5.0362122000000005
GXJABQQUPOEUTA-UHFFFAOYSA-N,bortezomib,CC(C)C[C@H](NC(=O)[C@H](Cc1ccccc1)NC(=O)c1cnccn1)B(O)O,B([C@H](CC(C)C)NC(=O)[C@H](Cc1ccccc1)NC(=O)c2cnccn2)(O)O,B([C@H](CC(C)C)NC(=O)[C@H](CC1=CC=CC=C1)NC(=O)C2=NC=CN=C2)(O)O,-2.066088634
GXKCKMQWBGVLQL-UHFFFAOYSA-N,,COc1cc2c(Nc3ccc(Oc4ccsn4)cc3)c(C#N)cnc2cc1OCCCN1CCOCC1,COc1cc2c(cc1OCCCN3CCOCC3)ncc(c2Nc4ccc(cc4)Oc5ccsn5)C#N,COC=1C=C2C(=C(C=NC2=CC1OCCCN3CCOCC3)C#N)NC=4C=CC(=CC4)OC=5C=CSN5,-5.8860566
GXLQTLHNFRGCKK-UHFFFAOYSA-N,,CCCCO[P+](O)(O)OCCCC,CCCCO[P+](O)(O)OCCCC,[P+](OCCCC)(OCCCC)(O)O,-1.087
GXMSCZMLCBHVLD-UHFFFAOYSA-N,,O=C(O)c1cnc(/C=C/c2cc(OCc3ccccc3Cl)cc(OCc3ccccc3Cl)c2)nc1,c1ccc(c(c1)COc2cc(cc(c2)OCc3ccccc3Cl)/C=C/c4ncc(cn4)C(=O)O)Cl,OC(=O)C=1C=NC(=NC1)/C=C/C=2C=C(C=C(C2)OCC=3C=CC=CC3Cl)OCC=4C=CC=CC4Cl,-5.05061
GXMSEXPNWNBDLX-UHFFFAOYSA-N,,COc1cccc(CC(=O)N2CCN(c3ncnc4ccsc34)CC2)c1,COc1cccc(c1)CC(=O)N2CCN(CC2)c3c4c(ccs4)ncn3,COC=1C=CC=C(C1)CC(=O)N2CCN(CC2)C=3N=CN=C4C3SC=C4,-3.9244529999999997
GXMWLJKTGBZMBH-UHFFFAOYSA-N,"(2,4-dichlorophenyl)acetic acid",O=C(O)Cc1ccc(Cl)cc1Cl,c1cc(c(cc1Cl)Cl)CC(=O)O,OC(=O)CC=1C=CC(=CC1Cl)Cl,-2.91907082
GXNXHJBYPBRWJB-UHFFFAOYSA-N,,COC(C)(c1cccc(OCc2ccc3nccnc3c2)c1)c1nccs1,CC(c1cccc(c1)OCc2ccc3c(c2)nccn3)(c4nccs4)OC,COC(C)(C1=NC=CS1)C=2C=CC=C(C2)OCC=3C=CC=4N=CC=NC4C3,-4.455932
GXOHBWLPQHTYPF-UHFFFAOYSA-N,AMYL LACTATE,CCCCCOC(=O)C(C)O,CCCCCOC(=O)C(C)O,CCCCCOC(=O)C(C)O,-1.20485
GXOXGLLWGAZZBI-UHFFFAOYSA-N,,Cc1noc(C)c1S(=O)(=O)N(C)CC1OCCCCC(C)Oc2ccc(NS(=O)(=O)c3cn(C)cn3)cc2C(=O)N(C(C)CO)CC1C,Cc1c(c(on1)C)S(=O)(=O)N(C)CC2C(CN(C(=O)c3cc(ccc3OC(CCCCO2)C)NS(=O)(=O)c4cn(cn4)C)C(C)CO)C,CC(CO)N1CC(C(OCCCCC(OC2=CC=C(C=C2C1=O)NS(=O)(=O)C3=CN(C=N3)C)C)CN(C)S(=O)(=O)C4=C(ON=C4C)C)C,-4.018
GXPHKUHSUJUWKP-UHFFFAOYSA-N,Troglitazone,Cc1c(C)c2c(c(C)c1O)CCC(C)(COc1ccc(CC3SC(=O)NC3=O)cc1)O2,Cc1c(c2c(c(c1O)C)CCC(O2)(C)COc3ccc(cc3)CC4C(=O)NC(=O)S4)C,CC1=C(C2=C(C(=C1O)C)CCC(O2)(C)COC3=CC=C(C=C3)CC4C(=O)NC(=O)S4)C,-6.579206372000001
GXQKIEDOAHYCGF-UHFFFAOYSA-N,Maprotiline,ClC1CCC(COC(CN2CCNC2)C2CCC(Cl)CC2Cl)C(Cl)C1,C1CC(C(CC1Cl)Cl)COC(CN2CCNC2)C3CCC(CC3Cl)Cl,C1C(CC(C(C1)COC(CN2CCNC2)C3CCC(CC3Cl)Cl)Cl)Cl,-4.691
GXRGCLGRYQJENW-UHFFFAOYSA-N,,O=C(O)CCCOc1cc(NC(=O)Cc2ccc3nc(Nc4ccccc4)oc3c2)ccc1OCc1cccnc1,c1ccc(cc1)Nc2nc3ccc(cc3o2)CC(=O)Nc4ccc(c(c4)OCCCC(=O)O)OCc5cccnc5,OC(=O)CCCOC=1C=C(C=CC1OCC=2C=CC=NC2)NC(=O)CC=3C=CC=4N=C(OC4C3)NC=5C=CC=CC5,-3.7695510999999997
GXRZIMHKGDIBEW-UHFFFAOYSA-N,"Cyclohexanol, 1-ethynyl-, carbamate",C#CC1(OC(N)=O)CCCCC1,C#CC1(CCCCC1)OC(=O)N,NC(=O)OC1(CCCCC1)C#C,-1.825
GXUMWTURYZASND-UHFFFAOYSA-N,,COc1cc2ncnc(Nc3ccc4nc(C)oc4c3)c2cc1OCCCN1CCOCC1,Cc1nc2ccc(cc2o1)Nc3c4cc(c(cc4ncn3)OC)OCCCN5CCOCC5,COC=1C=C2N=CN=C(C2=CC1OCCCN3CCOCC3)NC=4C=CC=5N=C(OC5C4)C,-4.3372421999999995
GXUQMXYCMNXJTN-UHFFFAOYSA-N,,O=C(NCCCn1ccnc1)c1ccc(Nc2ncc(Br)c(Nc3ccc(CO)cc3)n2)cc1,c1cc(ccc1CO)Nc2c(cnc(n2)Nc3ccc(cc3)C(=O)NCCCn4ccnc4)Br,OCC=1C=CC(=CC1)NC=2N=C(N=CC2Br)NC=3C=CC(=CC3)C(=O)NCCCN4C=CN=C4,-3.8860566
GXVKKGSUMOYXRP-UHFFFAOYSA-N,1-Mentanol,CC(C)C1(C)CCCC(O)C1,CC(C)C1(CCCC(C1)O)C,CC(C)C1(CCCC(C1)O)C,-0.6
GXVMAQACUOSFJF-UHFFFAOYSA-N,"2',3,5-TRICHLOROBIPHENYL",Clc1cc(Cl)cc(-c2ccccc2Cl)c1,c1ccc(c(c1)c2cc(cc(c2)Cl)Cl)Cl,ClC=1C=C(C=C(C1)C=2C=CC=CC2Cl)Cl,-6.3
GXYBSEVPLCHEBL-UHFFFAOYSA-N,"Phosphinic acid, dibutyl-, butyl ester",CCCCO[P+]([O-])(CCCC)CCCC,CCCCO[P+](CCCC)(CCCC)[O-],[P+](OCCCC)(CCCC)(CCCC)[O-],-1.7169999999999999
GYAXOMJLDKJSGB-UHFFFAOYSA-N,"Benzenesulfonamide, 4-amino-N-(4-methoxy-2-pyrim",COc1ccnc(NS(=O)(=O)c2ccc(N)cc2)n1,COc1ccnc(n1)NS(=O)(=O)c2ccc(cc2)N,S(=O)(=O)(NC=1N=C(C=CN1)OC)C2=CC=C(C=C2)N,-3.188
GYBINCQIWYHSST-UHFFFAOYSA-N,,CCn1c2ccccc2c2cc(NC(=O)N(C)CCc3ccccc3)ccc21,CCn1c2ccccc2c3c1ccc(c3)NC(=O)N(C)CCc4ccccc4,CCN1C=2C=CC=CC2C3=C1C=CC(=C3)NC(=O)N(C)CCC=4C=CC=CC4,-6.920818799999999
GYDJEQRTZSCIOI-UHFFFAOYSA-N,Tranexamic acid,NCC1CCC(C(=O)O)CC1,C1CC(CCC1CN)C(=O)O,NCC1CCC(CC1)C(=O)O,0.02575
GYESAYHWISMZOK-UHFFFAOYSA-N,5-hydroxyquinoline,Oc1cccc2ncccc12,c1cc2c(cccn2)c(c1)O,OC=1C=CC=C2C1C=CC=N2,-2.54
GYEYAUFEFWTVMP-UHFFFAOYSA-N,,COc1cc(NC(=O)Cc2ccc3nc(Nc4ccccc4)oc3c2)cc(OCC(C)CC(=O)O)c1,CC(CC(=O)O)COc1cc(cc(c1)OC)NC(=O)Cc2ccc3c(c2)oc(n3)Nc4ccccc4,COC=1C=C(C=C(C1)OCC(C)CC(=O)O)NC(=O)CC=2C=CC=3N=C(OC3C2)NC=4C=CC=CC4,-3.1079054
GYFAGKUZYNFMBN-UHFFFAOYSA-N,Benzo[ghi]perylene,c1cc2ccc3ccc4ccc5cccc6c(c1)c2c3c4c56,c1cc2ccc3ccc4ccc5cccc6c5c4c3c2c6c1,C=1C=C2C=CC=3C=CC=4C=CC=5C=CC=C6C5C4C3C2=C6C1,-9.03
GYFSPOGCFUTZKJ-UHFFFAOYSA-N,"2,4,6(1H,3H,5H)-Pyrimidinetrione, 1-(2,3-dihydro",CCC1(c2ccccc2)C(=O)NC(=O)N(C(O)CCO)C1=O,CCC1(C(=O)NC(=O)N(C1=O)C(CCO)O)c2ccccc2,N1(C(=O)NC(=O)C(C1=O)(C=2C=CC=CC2)CC)C(CCO)O,-1.787
GYGPSGONBNHPBF-UHFFFAOYSA-N,,CN(C)CC(O)COc1ccc(Nc2ncc(Br)c(Nc3ccc(Cl)cc3F)n2)cc1,CN(C)CC(COc1ccc(cc1)Nc2ncc(c(n2)Nc3ccc(cc3F)Cl)Br)O,CN(C)CC(O)COC=1C=CC(=CC1)NC=2N=CC(=C(N2)NC=3C=CC(=CC3F)Cl)Br,-4.853872
GYHCTFXIZSNGJT-UHFFFAOYSA-N,tolvaptan,Cc1ccccc1C(=O)Nc1ccc(C(=O)N2CCCC(O)c3cc(Cl)ccc32)c(C)c1,Cc1ccccc1C(=O)Nc2ccc(c(c2)C)C(=O)N3CCCC(c4c3ccc(c4)Cl)O,CC1=CC=CC=C1C(=O)NC2=CC(=C(C=C2)C(=O)N3CCCC(C4=C3C=CC(=C4)Cl)O)C,-5.9532182979999995
GYHFUZHODSMOHU-UHFFFAOYSA-N,Pelargonaldehyde,CCCCCCCCC=O,CCCCCCCCC=O,O=CCCCCCCCC,-3.17
GYHGUZNRWIIXIG-UHFFFAOYSA-N,"2,3-Dimethyl-2,3-dihydro-1H-imidazo[5,1b]quinazolin-9-one; 2,3-Dimethylimidazoquinazolone",CC1c2nc3ccccc3c(=O)n2CN1C,CC1c2nc3ccccc3c(=O)n2CN1C,CC1N(CN2C1=NC3=C(C2=O)C=CC=C3)C,0.03
GYHIXYWTIRXOOU-UHFFFAOYSA-N,,Cc1cccc2c3cc(NC(=O)N4CCOCC4)ccc3n(C(C)C)c12,Cc1cccc2c1n(c3c2cc(cc3)NC(=O)N4CCOCC4)C(C)C,CC(C)N1C=2C=CC(=CC2C3=C1C(=CC=C3)C)NC(=O)N4CCOCC4,-5.2924298
GYICULOJGLPGNP-UHFFFAOYSA-N,,CC(C)C(=O)Nc1ccc2c(c1)-c1ccccc1S2(=O)=O,CC(C)C(=O)Nc1ccc2c(c1)-c3ccccc3S2(=O)=O,CC(C)C(=O)NC=1C=CC2=C(C1)C=3C=CC=CC3S2(=O)=O,-4.920818799999999
GYISYJIAOWCPDU-UHFFFAOYSA-N,,CC(CCN1CCC(n2nnc3ccccc32)CC1)c1ccccc1,CC(CCN1CCC(CC1)n2c3ccccc3nn2)c4ccccc4,CC(CCN1CCC(CC1)N2N=NC3=C2C=CC=C3)C=4C=CC=CC4,-3.1804561000000002
GYKHMNMBKJUNLL-UHFFFAOYSA-N,,CC(O)(C(=O)Nc1ccc(S(=O)(=O)N2CCN(C(=O)CN)CC2)cc1Cl)C(F)(F)F,CC(C(=O)Nc1ccc(cc1Cl)S(=O)(=O)N2CCN(CC2)C(=O)CN)(C(F)(F)F)O,CC(O)(C(=O)NC=1C=CC(=CC1Cl)S(=O)(=O)N2CCN(CC2)C(=O)CN)C(F)(F)F,-2.853872
GYKMWKNUGHWYHA-UHFFFAOYSA-O,,O=C(O)CC[P+](O)(O)c1ccccc1,c1ccc(cc1)[P+](CCC(=O)O)(O)O,[P+](C1=CC=CC=C1)(CCC(=O)O)(O)O,-3.0780000000000003
GYKXQTKSWLAUIT-UHFFFAOYSA-N,N-METHYL O-(3-ISOPROPYLPHENYL)CARBAMATE,CNC(=O)Oc1cccc(C(C)C)c1,CC(C)c1cccc(c1)OC(=O)NC,CNC(=O)OC=1C=CC=C(C1)C(C)C,-3.35685
GYLKKXHEIIFTJH-UHFFFAOYSA-N,3-CYANOBENZOIC  ACID,N#Cc1cccc(C(=O)O)c1,c1cc(cc(c1)C(=O)O)C#N,OC(=O)C1=CC(=CC=C1)C#N,-2.63
GYMFBYTZOGMSQJ-UHFFFAOYSA-N,2-Methylanthracene,Cc1ccc2cc3ccccc3cc2c1,Cc1ccc2cc3ccccc3cc2c1,CC=1C=CC=2C=C3C=CC=CC3=CC2C1,-6.96
GYOIALHVUXQKNR-UHFFFAOYSA-N,,CC(=O)c1cc(-c2cc(C(N)=O)c(NC(N)=O)s2)ccc1OCCN1CCOCC1,CC(=O)c1cc(ccc1OCCN2CCOCC2)c3cc(c(s3)NC(=O)N)C(=O)N,CC(=O)C=1C=C(C=CC1OCCN2CCOCC2)C3=CC(=C(S3)NC(=O)N)C(=O)N,-4.7695511