inchikey,Name,SMILES_stand,SMILES,kekSmiles,logS
BCXKOIICQXXQJZ-UHFFFAOYSA-N,7-(BUTYRYLOXYMETHYL)THEOPHYLLINE;  7-(Butanoyloxymethyl)theophylline,CCCC(=O)OCn1cnc2c1c(=O)n(C)c(=O)n2C,CCCC(=O)OCn1cnc2c1c(=O)n(c(=O)n2C)C,CCCC(=O)OCN1C=NC2=C1C(=O)N(C(=O)N2C)C,-1.86
BCXSVFBDMPSKPT-UHFFFAOYSA-N,"5-amino-2,3-dihydro-1H-1,3-benzodiazol-2-one",Nc1ccc2[nH]c(=O)[nH]c2c1,c1cc2c(cc1N)[nH]c(=O)[nH]2,NC=1C=CC=2NC(=O)NC2C1,-2.334891451
BCYNJKQQXIODNZ-UHFFFAOYSA-N,"1-{bis[4-(diethylamino)phenyl]methyl}naphthalene-2,7-disulfonic acid",CCN(CC)c1ccc(C(c2ccc(N(CC)CC)cc2)c2c(S(=O)(=O)O)ccc3ccc(S(=O)(=O)O)cc23)cc1,CCN(CC)c1ccc(cc1)C(c2ccc(cc2)N(CC)CC)c3c(ccc4c3cc(cc4)S(=O)(=O)O)S(=O)(=O)O,CCN(CC)C=1C=CC(=CC1)C(C=2C=CC(=CC2)N(CC)CC)C=3C=4C=C(C=CC4C=CC3S(=O)(=O)O)S(=O)(=O)O,-0.698488075
BDBMLMBYCXNVMC-UHFFFAOYSA-O,indocyanine green,CC1(C)C(/C=C/C=C/C=C/C=C2/N(CCCCS(=O)(=O)O)c3ccc4ccccc4c3C2(C)C)=[N+](CCCCS(=O)(=O)O)c2ccc3ccccc3c21,CC1(c2c3ccccc3ccc2[N+](=C1/C=C/C=C/C=C/C=C/4\C(c5c6ccccc6ccc5N4CCCCS(=O)(=O)O)(C)C)CCCCS(=O)(=O)O)C,CC1(C(=[N+](C2=C1C3=CC=CC=C3C=C2)CCCCS(=O)(=O)O)/C=C/C=C/C=C/C=C/4\C(C5=C(C=CC=6C5=CC=CC6)N4CCCCS(=O)(=O)O)(C)C)C,-2.889279287
BDCFWIDZNLCTMF-UHFFFAOYSA-N,1-phenylethan-1-one; 2-phenylpropan-2-ol; phenol,CC(C)(O)c1ccccc1,CC(C)(c1ccccc1)O,CC(C)(O)C=1C=CC=CC1,-1.759153072
BDFGYZJJGSJOER-UHFFFAOYSA-N,,CN1CCN(CCCNc2ncc3c(Nc4ccc(F)c(Cl)c4)ncnc3n2)CC1,CN1CCN(CC1)CCCNc2ncc3c(n2)ncnc3Nc4ccc(c(c4)Cl)F,CN1CCN(CC1)CCCNC=2N=CC=3C(=NC=NC3N2)NC=4C=CC(=C(C4)Cl)F,-3.3098039
BDFZFGDTHFGWRQ-UHFFFAOYSA-N,"4-[(E)-2-{3-[(E)-2-(2,4-diaminophenyl)diazen-1-yl]phenyl}diazen-1-yl]benzene-1,3-diamine",Nc1ccc(/N=N/c2cccc(/N=N/c3ccc(N)cc3N)c2)c(N)c1,c1cc(cc(c1)/N=N/c2ccc(cc2N)N)/N=N/c3ccc(cc3N)N,NC=1C=CC(=C(C1)N)/N=N/C=2C=CC=C(C2)/N=N/C=3C=CC(=CC3N)N,-4.197076348
BDIPCQOQJANMBE-UHFFFAOYSA-N,,Cc1ccc(NC(=O)c2cccc3c2oc2ccccc23)cc1NC(=O)c1cc(NCC(C)(C)CN(C)C)ncn1,Cc1ccc(cc1NC(=O)c2cc(ncn2)NCC(C)(C)CN(C)C)NC(=O)c3cccc4c3oc5c4cccc5,CN(C)CC(C)(C)CNC=1C=C(N=CN1)C(=O)NC=2C=C(C=CC2C)NC(=O)C=3C=CC=C4C3OC5=C4C=CC=C5,-6.4814861
BDIUKXPWJZLJHF-UHFFFAOYSA-N,,Cc1c(NC(=O)NCCO)ccc2c1c1cc(F)ccc1n2C(C)C,Cc1c(ccc2c1c3cc(ccc3n2C(C)C)F)NC(=O)NCCO,CC(C)N1C=2C=CC(=CC2C3=C1C=CC(=C3C)NC(=O)NCCO)F,-4.5086383
BDJRBEYXGGNYIS-UHFFFAOYSA-N,nonanedioic acid,O=C(O)CCCCCCCC(=O)O,C(CCCC(=O)O)CCCC(=O)O,OC(=O)CCCCCCCC(=O)O,-1.89
BDKDHWOPFRTWPP-UHFFFAOYSA-N,"2,2-bis[(prop-2-en-1-yloxy)methyl]butan-1-ol",C=CCOCC(CC)(CO)COCC=C,CCC(CO)(COCC=C)COCC=C,CCC(CO)(COCC=C)COCC=C,-1.718124224
BDLQXDUSRMYDNS-UHFFFAOYSA-N,"6-methoxy-3-methylfuro[3,2-g]chromen-7-one",COc1cc2cc3c(C)coc3cc2oc1=O,Cc1coc2c1cc3cc(c(=O)oc3c2)OC,COC1=CC2=C(C=C3OC=C(C3=C2)C)OC1=O,-5.0
BDLUIKGKNQFJIO-UHFFFAOYSA-N,,COc1cc2ncnc(Nc3cccc(Cl)c3F)c2cc1OC1CCN(S(C)(=O)=O)CC1,COc1cc2c(cc1OC3CCN(CC3)S(=O)(=O)C)c(ncn2)Nc4cccc(c4F)Cl,COC=1C=C2N=CN=C(C2=CC1OC3CCN(CC3)S(=O)(=O)C)NC=4C=CC=C(C4F)Cl,-5.5767541
BDNIMOQMOANQMV-UHFFFAOYSA-N,"2-[3-(heptan-3-yl)-1,2-oxazolidin-2-yl]ethyl N-{6-[({2-[3-(heptan-3-yl)-1,2-oxazolidin-2-yl]ethoxy}carbonyl)amino]hexyl}carbamate",CCCCC(CC)C1CCON1CCOC(=O)NCCCCCCNC(=O)OCCN1OCCC1C(CC)CCCC,CCCCC(CC)C1CCON1CCOC(=O)NCCCCCCNC(=O)OCCN2C(CCO2)C(CC)CCCC,CCCCC(CC)C1CCON1CCOC(=O)NCCCCCCNC(=O)OCCN2OCCC2C(CC)CCCC,-5.790780412
BDPAWKOIGCDWSO-UHFFFAOYSA-N,,O=C(O)CC(COc1cccc(NC(=O)Cc2ccc3nc(Nc4ccccc4)oc3c2)c1)n1ccnn1,c1ccc(cc1)Nc2nc3ccc(cc3o2)CC(=O)Nc4cccc(c4)OCC(CC(=O)O)n5ccnn5,OC(=O)CC(COC=1C=CC=C(C1)NC(=O)CC=2C=CC=3N=C(OC3C2)NC=4C=CC=CC4)N5C=CN=N5,-3.0315171000000003
BDPQUWSFKCFOST-UHFFFAOYSA-N,3-TOLYL  ISOTHIOCYANATE,Cc1cccc(N=C=S)c1,Cc1cccc(c1)N=C=S,CC1=CC=CC(=C1)N=C=S,-3.85
BDQPWMKELPFRSK-UHFFFAOYSA-N,,COc1cc2c(Nc3cnc(CNc4ccc(F)cc4Cl)nc3)ncnc2cc1OCCCN1CCOCC1,COc1cc2c(cc1OCCCN3CCOCC3)ncnc2Nc4cnc(nc4)CNc5ccc(cc5Cl)F,COC=1C=C2C(=NC=NC2=CC1OCCCN3CCOCC3)NC=4C=NC(=NC4)CNC=5C=CC(=CC5Cl)F,-6.920818799999999
BDQWWOHKFDSADC-UHFFFAOYSA-N,CLOMEPROP,Cc1c(Cl)ccc(OC(C)C(=O)Nc2ccccc2)c1Cl,Cc1c(ccc(c1Cl)OC(C)C(=O)Nc2ccccc2)Cl,CC(OC=1C=CC(=C(C1Cl)C)Cl)C(=O)NC=2C=CC=CC2,-7.006
BDRVLWIGACCHML-UHFFFAOYSA-N,,Cc1cc(-c2ccc(Cl)cc2)nn1-c1ccccc1NC=O,Cc1cc(nn1c2ccccc2NC=O)c3ccc(cc3)Cl,O=CNC=1C(=CC=CC1)N2N=C(C=C2C)C=3C=CC(=CC3)Cl,-7.3177458
BDSGSVCTQKDSEC-UHFFFAOYSA-N,,COc1cc2c(Nc3cnc(NC(=O)c4ccccc4)nc3)ncnc2cc1OCC(O)CN1CCC(C(N)=O)CC1,COc1cc2c(cc1OCC(CN3CCC(CC3)C(=O)N)O)ncnc2Nc4cnc(nc4)NC(=O)c5ccccc5,COC=1C=C2C(=NC=NC2=CC1OCC(O)CN3CCC(CC3)C(=O)N)NC=4C=NC(=NC4)NC(=O)C=5C=CC=CC5,-3.5850267
BDWKETLTJLLTKM-UHFFFAOYSA-N,,O=C(c1ccccc1)c1cc(=O)n(Cc2ccc(Cl)cc2)s1,c1ccc(cc1)C(=O)c2cc(=O)n(s2)Cc3ccc(cc3)Cl,ClC=1C=CC(=CC1)CN2SC(=CC2=O)C(=O)C=3C=CC=CC3,-5.924008799999999
BDYUSDIJIDGWCY-UHFFFAOYSA-N,"N,N-Dimethyldodecanamide",CCCCCCCCCCCC(=O)N(C)C,CCCCCCCCCCCC(=O)N(C)C,CCCCCCCCCCCC(=O)N(C)C,-3.9091535260000003
BDZUXXVCUNXOPR-UHFFFAOYSA-N,,NC(=O)Nc1sc(-c2ccco2)cc1C(N)=O,c1cc(oc1)c2cc(c(s2)NC(=O)N)C(=O)N,NC(=O)NC=1SC(=CC1C(=O)N)C2=CC=CO2,-3.6575773000000003
BEARMGATPGLSKG-UHFFFAOYSA-N,"1,1,5-trimethylhept-6-en-1-yl acetate",C=CC(C)CCCC(C)(C)OC(C)=O,CC(CCCC(C)(C)OC(=O)C)C=C,CC(CCCC(C)(C)OC(=O)C)C=C,-4.030082063
BEBAQUVUUDQIAW-UHFFFAOYSA-N,,Cc1ccccc1-c1ccc2nc(Nc3ccc(OCCN4CCCC4)cc3)ncc2c1,Cc1ccccc1c2ccc3c(c2)cnc(n3)Nc4ccc(cc4)OCCN5CCCC5,CC=1C=CC=CC1C=2C=CC=3N=C(N=CC3C2)NC=4C=CC(=CC4)OCCN5CCCC5,-4.876148400000001
BEBCJDNTIRLMDY-UHFFFAOYSA-N,,CC(C)Oc1cc(OC(C)C)cc(C(=O)Nc2ccc(C(=O)O)cn2)c1,CC(C)Oc1cc(cc(c1)OC(C)C)C(=O)Nc2ccc(cn2)C(=O)O,CC(C)OC=1C=C(C=C(C1)C(=O)NC=2C=CC(=CN2)C(=O)O)OC(C)C,-2.8041002999999995
BEEGBBKQFMABPW-UHFFFAOYSA-N,,O=[N+]([O-])c1cc(S(=O)(=O)Nc2ccccc2)ccc1Cl,c1ccc(cc1)NS(=O)(=O)c2ccc(c(c2)[N+](=O)[O-])Cl,ClC=1C=CC(=CC1[N+](=O)[O-])S(=O)(=O)NC=2C=CC=CC2,-3.4921441
BEFBEUOLGXIHSW-UHFFFAOYSA-N,,N#Cc1cnc(Nc2ccc(S(=O)(=O)NCCCN3CCCC3=O)cc2)nc1N,c1cc(ccc1Nc2ncc(c(n2)N)C#N)S(=O)(=O)NCCCN3CCCC3=O,NC=1N=C(N=CC1C#N)NC=2C=CC(=CC2)S(=O)(=O)NCCCN3CCCC3=O,-5.3467875
BEHVSOXQVJORNC-UHFFFAOYSA-N,"NAPROXEN, DERIVAT 3E",COc1ccc2cc(C(C)C(=O)OCCCCOC(=O)CCN3CCN(C)CC3)ccc2c1,CC(c1ccc2cc(ccc2c1)OC)C(=O)OCCCCOC(=O)CCN3CCN(CC3)C,COC1=CC2=CC=C(C=C2C=C1)C(C)C(=O)OCCCCOC(=O)CCN3CCN(CC3)C,-0.8490000000000001
BEKPVURQZFHVNP-UHFFFAOYSA-N,,Cc1ccc(S(=O)(=O)c2ccc(S(N)(=O)=O)o2)cc1,Cc1ccc(cc1)S(=O)(=O)c2ccc(o2)S(=O)(=O)N,C1=C(C=CC(=C1)S(=O)(=O)C2=CC=C(O2)S(=O)(=O)N)C,-3.78
BELBBZDIHDAJOR-UHFFFAOYSA-N,PHENOLSULPHONEPHTHALEIN,O=S1(=O)OC(c2ccc(O)cc2)(c2ccc(O)cc2)c2ccccc21,c1ccc2c(c1)C(OS2(=O)=O)(c3ccc(cc3)O)c4ccc(cc4)O,O=S1(=O)OC(C2=C1C=CC=C2)(C3=CC=C(C=C3)O)C4=CC=C(C=C4)O,-3.071
BELKVKMBIAENSA-UHFFFAOYSA-N,"1(3H)-Isobenzofuranone, 6-bromo-",O=C1OCc2ccc(Br)cc21,c1cc2c(cc1Br)C(=O)OC2,C1(=O)C2=C(C=CC(=C2)Br)CO1,-2.6471
BERFDQAMXIBOHM-UHFFFAOYSA-N,"benzaldehyde, 4-ethoxy-3-methoxy-",CCOc1ccc(C=O)cc1OC,CCOc1ccc(cc1OC)C=O,CCOC=1C=CC(=CC1OC)C=O,-2.19
BERGSXODHKKFNW-UHFFFAOYSA-N,,CC(C)CN(CC(=O)NC(C#N)c1ccco1)S(=O)(=O)c1ccccc1Cl,CC(C)CN(CC(=O)NC(C#N)c1ccco1)S(=O)(=O)c2ccccc2Cl,CC(C)CN(CC(=O)NC(C#N)C1=CC=CO1)S(=O)(=O)C=2C=CC=CC2Cl,-4.8239087
BEUIPYCCIRTKMT-UHFFFAOYSA-N,,Cc1cc2c(c(C)c1NC(=O)N1CCC(C(N)=O)CC1)c1ccccc1n2C(C)C,Cc1cc2c(c(c1NC(=O)N3CCC(CC3)C(=O)N)C)c4ccccc4n2C(C)C,CC(C)N1C=2C=CC=CC2C3=C1C=C(C(=C3C)NC(=O)N4CCC(CC4)C(=O)N)C,-3.4546928999999995
BEYOBVMPDRKTNR-UHFFFAOYSA-N,P-PHENYLAZOPHENOL,Oc1ccc(/N=N/c2ccccc2)cc1,c1ccc(cc1)/N=N/c2ccc(cc2)O,OC1=CC=C(C=C1)/N=N/C2=CC=CC=C2,-3.6439999999999997
BEZDDPMMPIDMGJ-UHFFFAOYSA-N,Pentamethylbenzene,Cc1cc(C)c(C)c(C)c1C,Cc1cc(c(c(c1C)C)C)C,CC=1C=C(C(=C(C1C)C)C)C,-4.0
BFABOEKGZASJFN-UHFFFAOYSA-N,7-(PIVALOYLOXYMETHYL)THEOPHYLLINE (VIII),Cn1c(=O)c2c(ncn2COC(=O)C(C)(C)C)n(C)c1=O,CC(C)(C)C(=O)OCn1cnc2c1c(=O)n(c(=O)n2C)C,CN1C(=O)N(C2=C(C1=O)N(C=N2)COC(=O)C(C)(C)C)C,-2.17
BFASOGCHMDYMBM-UHFFFAOYSA-N,4-ACETOXYBENZAMIDE;  4-CARBAMOYLPHENYL  ACETATE,CC(=O)Oc1ccc(C(N)=O)cc1,CC(=O)Oc1ccc(cc1)C(=O)N,CC(=O)OC1=CC=C(C=C1)C(=O)N,-1.64
BFBSAKMRLXKKGL-UHFFFAOYSA-N,,COCCNCC(O)COc1cc2c(Nc3ccc(F)c(Cl)c3)ncnc2cc1OC,COCCNCC(COc1cc2c(cc1OC)ncnc2Nc3ccc(c(c3)Cl)F)O,COCCNCC(O)COC=1C=C2C(=NC=NC2=CC1OC)NC=3C=CC(=C(C3)Cl)F,-3.0
BFCFYVKQTRLZHA-UHFFFAOYSA-N,o-Chloronitrobenzene,O=[N+]([O-])c1ccccc1Cl,c1ccc(c(c1)[N+](=O)[O-])Cl,O=[N+]([O-])C=1C=CC=CC1Cl,-2.551498179
BFDNMOUQIJQQQX-UHFFFAOYSA-N,,COc1cc(NC(=O)OCCCN2CCCCC2)c(C)cc1NC(=O)Nc1ccccc1C,Cc1ccccc1NC(=O)Nc2cc(c(cc2OC)NC(=O)OCCCN3CCCCC3)C,COC=1C=C(C(=CC1NC(=O)NC=2C=CC=CC2C)C)NC(=O)OCCCN3CCCCC3,-3.5376019999999997
BFDOIDDYUYMKLB-UHFFFAOYSA-N,,COc1cc(NC(=O)OC2CCN(CCCC(=O)O)CC2)c(C)cc1NC(=O)Nc1ccccc1C,Cc1ccccc1NC(=O)Nc2cc(c(cc2OC)NC(=O)OC3CCN(CC3)CCCC(=O)O)C,COC=1C=C(C(=CC1NC(=O)NC=2C=CC=CC2C)C)NC(=O)OC3CCN(CC3)CCCC(=O)O,-3.5528419999999996
BFEJTCHFLJECJN-UHFFFAOYSA-N,"4,11-dichloro-5,7,12,14-tetrahydro-5,12-diazapentacene-7,14-dione",O=c1c2cc3[nH]c4c(Cl)cccc4c(=O)c3cc2[nH]c2c(Cl)cccc12,c1cc2c(c(c1)Cl)[nH]c3cc4c(cc3c2=O)[nH]c5c(c4=O)cccc5Cl,ClC=1C=CC=C2C1NC3=C(C2=O)C=C4NC=5C(=CC=CC5C(=O)C4=C3)Cl,-6.457160879
BFESKOTYBVOOQX-UHFFFAOYSA-N,Heptenophos,COP(=O)(OC)OC1=C(Cl)CC2C=CC12,COP(=O)(OC)OC1=C(CC2C1C=C2)Cl,COP(=O)(OC)OC1=C(CC2C1C=C2)Cl,-2.0568
BFGRBDMQIUTZOC-UHFFFAOYSA-N,,COc1cc(C=C2c3ccccc3C(=O)c3ccccc32)cc(OC)c1O,COc1cc(cc(c1O)OC)C=C2c3ccccc3C(=O)c4c2cccc4,COC=1C=C(C=C(C1O)OC)C=C2C=3C=CC=CC3C(=O)C4=C2C=CC=C4,-6.798602900000001
BFIAIMMAHAIVFT-UHFFFAOYSA-N,Tri-sec-butanolamine,CCC(O)CN(CC(O)CC)CC(O)CC,CCC(CN(CC(CC)O)CC(CC)O)O,N(CC(O)CC)(CC(O)CC)CC(O)CC,-0.5229
BFIIANMKQVNCOV-UHFFFAOYSA-N,,Cc1ccc(NC(=O)c2ccnc(N3CCOCC3)c2)cc1Nc1ccnc(Cl)n1,Cc1ccc(cc1Nc2ccnc(n2)Cl)NC(=O)c3ccnc(c3)N4CCOCC4,CC=1C=CC(=CC1NC=2C=CN=C(N2)Cl)NC(=O)C=3C=CN=C(C3)N4CCOCC4,-4.8239087
BFIJOYZWCZCWDI-UHFFFAOYSA-N,,CNC(=O)C1CCCN(C(=O)Nc2c(C)cc3c(c2C)c2ccccc2n3C(C)C)C1,Cc1cc2c(c(c1NC(=O)N3CCCC(C3)C(=O)NC)C)c4ccccc4n2C(C)C,CNC(=O)C1CCCN(C1)C(=O)NC=2C(=CC=3N(C=4C=CC=CC4C3C2C)C(C)C)C,-3.838632
BFLAUZDCMBNZHH-UHFFFAOYSA-N,,CN(C)CC(O)COc1ccc(Nc2ncc(Br)c(Nc3ccc(CO)cc3)n2)cc1,CN(C)CC(COc1ccc(cc1)Nc2ncc(c(n2)Nc3ccc(cc3)CO)Br)O,CN(C)CC(O)COC=1C=CC(=CC1)NC=2N=CC(=C(N2)NC=3C=CC(=CC3)CO)Br,-3.4685211000000002
BFPCQWHCVRJEKL-UHFFFAOYSA-N,,CCCSc1nc(NC2CC2c2ccccc2)c2nnn(C3CC(CO)C(O)C3O)c2n1,CCCSc1nc(c2c(n1)n(nn2)C3CC(C(C3O)O)CO)NC4CC4c5ccccc5,C=1(C=CC=CC1)C2C(C2)NC=3N=C(N=C4C3N=NN4C5CC(C(C5O)O)CO)SCCC,-5.043556400000001
BFPYWIDHMRZLRN-UHFFFAOYSA-N,ethinylestradiol,C#C[C@]1(O)CC[C@H]2[C@@H]3CCc4cc(O)ccc4[C@H]3CC[C@@]21C,C[C@]12CC[C@@H]3c4ccc(cc4CC[C@H]3[C@@H]1CC[C@]2(C#C)O)O,OC=1C=C2C(=CC1)C3C(C4C(C(CC4)(O)C#C)(CC3)C)CC2,-4.3595
BFSMULOSYIQCGJ-UHFFFAOYSA-N,4-(hydroxy-phenylphosphoryl)benzoic acid,O=C(O)c1ccc(P(=O)(O)c2ccccc2)cc1,c1ccc(cc1)P(=O)(c2ccc(cc2)C(=O)O)O,O=C(O)C1=CC=C(C=C1)P(=O)(O)C2=CC=CC=C2,-4.07
BFTDELFVNAGEMP-UHFFFAOYSA-N,,Cc1cc2c(c(C)c1NC(=O)C(C)(C)C)c1ccccc1n2C(C)C,Cc1cc2c(c(c1NC(=O)C(C)(C)C)C)c3ccccc3n2C(C)C,CC(C)N1C=2C=CC=CC2C3=C1C=C(C(=C3C)NC(=O)C(C)(C)C)C,-5.8860566
BFUOFPFHFMZYHE-UHFFFAOYSA-N,,CCOc1ccccc1Oc1ccc(Nc2c(C#N)cnc3cc(OCCCN4CCCC4)c(OC)cc23)cc1,CCOc1ccccc1Oc2ccc(cc2)Nc3c4cc(c(cc4ncc3C#N)OCCCN5CCCC5)OC,CCOC=1C=CC=CC1OC=2C=CC(=CC2)NC=3C(=CN=C4C3C=C(C(=C4)OCCCN5CCCC5)OC)C#N,-5.721246400000001
BFVHBHKMLIBQNN-UHFFFAOYSA-N,N-(2-Chlorophenyl)-3-oxobutanamide,CC(=O)CC(=O)Nc1ccccc1Cl,CC(=O)CC(=O)Nc1ccccc1Cl,CC(=O)CC(=O)NC=1C=CC=CC1Cl,-2.406768039
BFVNEYDCFJNLGN-UHFFFAOYSA-N,,CCc1cc2c(c(CC)n1)CCC(=O)N2Cc1ccc(-c2ccccc2-c2nnn[nH]2)cc1,CCc1cc2c(c(n1)CC)CCC(=O)N2Cc3ccc(cc3)c4ccccc4c5[nH]nnn5,CCC=1C=C2C(=C(N1)CC)CCC(=O)N2CC=3C=CC(=CC3)C=4C=CC=CC4C5=NN=NN5,-4.0457575
BFVVECCIWSSZKY-UHFFFAOYSA-N,"Cyclobutanecarboxylic acid, 3-[1-[(aminocarbonyl",C/C(=N\NC(N)=O)C1CC(C(=O)O)C1(C)C,C/C(=N\NC(=O)N)/C1CC(C1(C)C)C(=O)O,C1(C(CC1/C(=N/NC(=O)N)/C)C(=O)O)(C)C,-2.3569999999999998
BFWXQSLJSDLIAA-UHFFFAOYSA-N,"Azuleno[6,5-b]furan-2,6-(3H,4H)-dione, 3a,7,7a,8",CC1=C2[C@@H](O)[C@@H]3[C@H](C)C(=O)O[C@@H]3C[C@H](C)[C@H]2CC1=O,C[C@H]1C[C@@H]2[C@@H]([C@@H](C(=O)O2)C)[C@@H](C3=C(C(=O)C[C@H]13)C)O,C[C@H]1C[C@H]2OC(=O)[C@H]([C@H]2[C@@H](C3=C(C(=O)C[C@H]13)C)O)C,-1.945
BFZHCUBIASXHPK-UHFFFAOYSA-N,"PREG-4-ENE-3,20-DIONE, 11-HYDROXY-, (11.alpha.)-",CC(=O)C1CC[C@H]2[C@@H]3CCC4=CC(=O)CC[C@]4(C)[C@H]3[C@H](O)C[C@]12C,CC(=O)C1CC[C@@H]2[C@@]1(C[C@H]([C@H]3[C@H]2CCC4=CC(=O)CC[C@]34C)O)C,OC1CC2(C(C3C1C4(C(=CC(=O)CC4)CC3)C)CCC2C(=O)C)C,-3.82
BFZZYLQHBURUCO-UHFFFAOYSA-N,,CN(C)C(=O)C(Cc1ccccc1)NC(=O)c1cc2cc(Br)sc2[nH]1,CN(C)C(=O)C(Cc1ccccc1)NC(=O)c2cc3cc(sc3[nH]2)Br,CN(C)C(=O)C(CC=1C=CC=CC1)NC(=O)C2=CC=3C=C(SC3N2)Br,-6.0736576
BGAUMHAIAGXEFB-UHFFFAOYSA-N,"1,3-Cyclopentanedicarboxylic acid, 1,4,4-trimeth",CC1(C(=O)O)CC(C(=O)O)C(C)(C)C1,CC1(CC(CC1C(=O)O)(C)C(=O)O)C,C1(CC(C(C1)(C)C)C(=O)O)(C(=O)O)C,-1.639
BGBDMEPBLWJCHI-UHFFFAOYSA-N,"disodium 5-methyl-2-({4-[(4-methyl-2-sulfonatophenyl)amino]-9,10-dioxo-9,10-dihydroanthracen-1-yl}amino)benzene-1-sulfonate",Cc1ccc(Nc2ccc(Nc3ccc(C)cc3S(=O)(=O)O)c3c2C(=O)c2ccccc2C3=O)c(S(=O)(=O)O)c1,Cc1ccc(c(c1)S(=O)(=O)O)Nc2ccc(c3c2C(=O)c4ccccc4C3=O)Nc5ccc(cc5S(=O)(=O)O)C,CC=1C=CC(=C(C1)S(=O)(=O)O)NC=2C=CC(=C3C2C(=O)C4=C(C=CC=C4)C3=O)NC=5C=CC(=CC5S(=O)(=O)O)C,-1.427015629
BGDKAVGWHJFAGW-UHFFFAOYSA-N,Tropicamide,CCN(Cc1ccncc1)C(=O)C(CO)c1ccccc1,CCN(Cc1ccncc1)C(=O)C(CO)c2ccccc2,N1=CC=C(C=C1)CN(CC)C(=O)C(C2=CC=CC=C2)CO,-1.7
BGDRTFHVGPPLEP-UHFFFAOYSA-N,,O=C(Nc1ccc2c(c1)-c1ccccc1S2(=O)=O)N1CCC(C(=O)N2CCOCC2)CC1,c1ccc2c(c1)-c3cc(ccc3S2(=O)=O)NC(=O)N4CCC(CC4)C(=O)N5CCOCC5,O=C(NC=1C=CC2=C(C1)C=3C=CC=CC3S2(=O)=O)N4CCC(CC4)C(=O)N5CCOCC5,-4.366531500000001
BGEBZHIAGXMEMV-UHFFFAOYSA-N,"4-methoxyfuro[3,2-g]chromen-7-one",COc1c2ccoc2cc2oc(=O)ccc12,COc1c2ccc(=O)oc2cc3c1cco3,COC1=C2C=COC2=CC3=C1C=CC(=O)O3,-3.6
BGEFIXBECPOKLM-UHFFFAOYSA-N,,COc1cc2c(Nc3ccc(NC(=O)c4ccccc4)cc3)ncnc2cc1OCCNCC1CC1,COc1cc2c(cc1OCCNCC3CC3)ncnc2Nc4ccc(cc4)NC(=O)c5ccccc5,COC=1C=C2C(=NC=NC2=CC1OCCNCC3CC3)NC=4C=CC(=CC4)NC(=O)C=5C=CC=CC5,-4.040958600000001
BGFBWRWYROQISE-UHFFFAOYSA-N,"(5-Ethyl-1,3-dioxan-5-yl)methanol",CCC1(CO)COCOC1,CCC1(COCOC1)CO,CCC1(COCOC1)CO,0.835097109
BGFUKOBHJOFLNH-UHFFFAOYSA-N,,N=C(N)c1cc2c(/C=C/c3ccc4c(c3)OCO4)cccc2s1,c1cc(c2cc(sc2c1)C(=N)N)/C=C/c3ccc4c(c3)OCO4,NC(=N)C1=CC=2C(=CC=CC2S1)/C=C/C=3C=CC4=C(C3)OCO4,-5.4436975
BGHCVCJVXZWKCC-UHFFFAOYSA-N,Tetradecane,CCCCCCCCCCCCCC,CCCCCCCCCCCCCC,CCCCCCCCCCCCCC,-7.70555
BGKAKRUFBSTALK-UHFFFAOYSA-N,4-Formyl-2-methoxyphenyl 2-methylpropanoate,COc1cc(C=O)ccc1OC(=O)C(C)C,CC(C)C(=O)Oc1ccc(cc1OC)C=O,COC=1C=C(C=CC1OC(=O)C(C)C)C=O,-2.588833803
BGKIECJVXXHLDP-UHFFFAOYSA-N,"2,3,4-TRICHLORONITROBENZENE",O=[N+]([O-])c1ccc(Cl)c(Cl)c1Cl,c1cc(c(c(c1[N+](=O)[O-])Cl)Cl)Cl,O=[N+]([O-])C=1C=CC(=C(C1Cl)Cl)Cl,-3.94
BGLIKQSRMUAARH-UHFFFAOYSA-N,,CCCCC(O)C(CC1CCCCC1)NC(=O)C(Cc1c[nH]cn1)NC(=O)C(Cc1ccccc1)NC(=O)OC(C)(C)C,CCCCC(C(CC1CCCCC1)NC(=O)C(Cc2c[nH]cn2)NC(=O)C(Cc3ccccc3)NC(=O)OC(C)(C)C)O,CCCCC(O)C(CC1CCCCC1)NC(=O)C(CC2=CNC=N2)NC(=O)C(CC=3C=CC=CC3)NC(=O)OC(C)(C)C,-5.653647
BGLZECVIKIGPIF-UHFFFAOYSA-N,1-(2-benzenesulfonamidophenyl)-3-phenylurea,O=C(Nc1ccccc1)Nc1ccccc1NS(=O)(=O)c1ccccc1,c1ccc(cc1)NC(=O)Nc2ccccc2NS(=O)(=O)c3ccccc3,O=C(NC=1C=CC=CC1)NC=2C=CC=CC2NS(=O)(=O)C=3C=CC=CC3,-4.57820144
BGMFJTUTJOZHHZ-UHFFFAOYSA-N,"2-Butenedioic acid, 2-methyl-, 1-methyl ester, (",COC(=O)/C(C)=C/C(=O)O,C/C(=C\C(=O)O)/C(=O)OC,O=C(O)/C=C(/C(=O)OC)\C,-0.7521
BGMZUEKZENQUJY-UHFFFAOYSA-N,,COc1cc(CC(C)N)c(OC)cc1I,CC(Cc1cc(c(cc1OC)I)OC)N,IC1=C(C=C(C(=C1)OC)CC(N)C)OC,0.9929
BGNGWHSBYQYVRX-UHFFFAOYSA-N,4-(dimethylamino)benzaldehyde,CN(C)c1ccc(C=O)cc1,CN(C)c1ccc(cc1)C=O,CN(C)C=1C=CC(=CC1)C=O,-2.282884425
BGNHXVMZTVHITP-UHFFFAOYSA-N,6-Acetyloxymethylthio-9-acetyloxymethylpurine,CC(=O)OCSc1ncnc2c1ncn2COC(C)=O,CC(=O)OCn1cnc2c1ncnc2SCOC(=O)C,CC(=O)OCSC1=NC=NC2=C1N=CN2COC(=O)C,-2.54
BGNQYGRXEXDAIQ-UHFFFAOYSA-N,Pyrazosulfuron-ethyl,CCOC(=O)c1cnn(C)c1S(=O)(=O)NC(=O)Nc1nc(OC)cc(OC)n1,CCOC(=O)c1cnn(c1S(=O)(=O)NC(=O)Nc2nc(cc(n2)OC)OC)C,S(=O)(=O)(C1=C(C=NN1C)C(=O)OCC)NC(=O)NC2=NC(=CC(=N2)OC)OC,-4.4561
BGNXCDMCOKJUMV-UHFFFAOYSA-N,"2-tert-butylbenzene-1,4-diol",CC(C)(C)c1cc(O)ccc1O,CC(C)(C)c1cc(ccc1O)O,CC(C)(C)C=1C=C(C=CC1O)O,-1.220841639
BGOBEIHKRXYFKX-UHFFFAOYSA-N,,CN1CCC(Oc2cccc(C(=O)Nc3cc(NC(=O)c4cc(F)cc(N5CCOCC5)c4)ccc3F)c2)CC1,CN1CCC(CC1)Oc2cccc(c2)C(=O)Nc3cc(ccc3F)NC(=O)c4cc(cc(c4)F)N5CCOCC5,CN1CCC(CC1)OC=2C=CC=C(C2)C(=O)NC=3C=C(C=CC3F)NC(=O)C=4C=C(C=C(C4)N5CCOCC5)F,-4.236572
BGOFCVIGEYGEOF-UHFFFAOYSA-N,Helicin,O=Cc1ccccc1O[C@@H]1O[C@H](CO)[C@@H](O)[C@H](O)[C@H]1O,c1ccc(c(c1)C=O)O[C@H]2[C@@H]([C@H]([C@@H]([C@H](O2)CO)O)O)O,OC[C@H]1O[C@H]([C@@H]([C@H]([C@@H]1O)O)O)OC=2C=CC=CC2C=O,-1.198
BGPZYJSOTDBJMV-UHFFFAOYSA-N,"1H-Imidazole-4,5-dicarboxylic acid, 2-propyl-",CCCc1nc(C(=O)O)c(C(=O)O)[nH]1,CCCc1[nH]c(c(n1)C(=O)O)C(=O)O,C1(=C(NC(=N1)CCC)C(=O)O)C(=O)O,-2.19
BGRJTUBHPOOWDU-UHFFFAOYSA-N,sulpiride,CCN1CCCC1CNC(=O)c1cc(S(N)(=O)=O)ccc1OC,CCN1CCCC1CNC(=O)c2cc(ccc2OC)S(=O)(=O)N,S(=O)(=O)(N)C1=CC(=C(C=C1)OC)C(=O)NCC2N(CCC2)CC,-2.527683416
BGRKGHSKCFAPCL-UHFFFAOYSA-N,2-(2-methylbutan-2-yl)phenol,CCC(C)(C)c1ccccc1O,CCC(C)(C)c1ccccc1O,CCC(C)(C)C=1C=CC=CC1O,-2.49111211
BGRWYDHXPHLNKA-UHFFFAOYSA-N,N-acetyl-N-[2-(N-acetylacetamido)ethyl]acetamide,CC(=O)N(CCN(C(C)=O)C(C)=O)C(C)=O,CC(=O)N(CCN(C(=O)C)C(=O)C)C(=O)C,CC(=O)N(CCN(C(=O)C)C(=O)C)C(=O)C,-2.279
BGSZAXLLHYERSY-UHFFFAOYSA-N,vecuronium bromide,CC(=O)O[C@H]1C[C@@H]2CC[C@@H]3[C@H](CC[C@@]4(C)[C@H]3C[C@H]([N+]3(C)CCCCC3)[C@@H]4OC(C)=O)[C@@]2(C)C[C@@H]1N1CCCCC1,CC(=O)O[C@H]1C[C@@H]2CC[C@@H]3[C@@H]([C@]2(C[C@@H]1N4CCCCC4)C)CC[C@]5([C@H]3C[C@@H]([C@@H]5OC(=O)C)[N+]6(CCCCC6)C)C,CC(=O)O[C@H]1C[C@@H]2CC[C@@H]3[C@@H]([C@]2(C[C@@H]1N4CCCCC4)C)CC[C@]5([C@H]3C[C@@H]([C@@H]5OC(=O)C)[N+]6(CCCCC6)C)C,-1.482417553
BGTBFNDXYDYBEY-UHFFFAOYSA-N,beta-Damascone,C/C=C/C(=O)C1=C(C)CCCC1(C)C,C/C=C/C(=O)C1=C(CCCC1(C)C)C,C/C=C/C(=O)C1=C(CCCC1(C)C)C,-3.0
BGYMYZNZTXVIHI-UHFFFAOYSA-N,4-METHOXYPHENYLKNI-727,COc1ccc(C(=O)NC(Cc2ccccc2)C(O)C(=O)N2CSC(C)(C)C2C(=O)NC(C)(C)C)cc1,CC1(C(N(CS1)C(=O)C(C(Cc2ccccc2)NC(=O)c3ccc(cc3)OC)O)C(=O)NC(C)(C)C)C,COC1=CC=C(C=C1)C(=O)NC(CC2=CC=CC=C2)C(O)C(=O)N3CSC(C3C(=O)NC(C)(C)C)(C)C,-4.11
BGZBLQOBIQXKCL-UHFFFAOYSA-N,,COc1cc2c(Nc3cccc4c3OCO4)ncnc2cc1OCCCS(C)(=O)=O,COc1cc2c(cc1OCCCS(=O)(=O)C)ncnc2Nc3cccc4c3OCO4,COC=1C=C2C(=NC=NC2=CC1OCCCS(=O)(=O)C)NC=3C=CC=C4C3OCO4,-4.3767507000000005
BGZZWXTVIYUUEY-UHFFFAOYSA-N,Fomesafen,CS(=O)(=O)NC(=O)c1cc(Oc2ccc(C(F)(F)F)cc2Cl)ccc1[N+](=O)[O-],CS(=O)(=O)NC(=O)c1cc(ccc1[N+](=O)[O-])Oc2ccc(cc2Cl)C(F)(F)F,S(=O)(=O)(NC(=O)C=1C(=CC=C(C1)OC2=C(C=C(C=C2)C(F)(F)F)Cl)[N+](=O)[O-])C,-3.943
BHBFUQWAFABBLJ-UHFFFAOYSA-N,,CNC(=O)C(NC(=O)C(CC(C)C)C(Sc1ccc(OC)c(OC)c1)C(=O)NO)C(C)(C)C,CC(C)CC(C(C(=O)NO)Sc1ccc(c(c1)OC)OC)C(=O)NC(C(=O)NC)C(C)(C)C,CNC(=O)C(NC(=O)C(CC(C)C)C(SC=1C=CC(=C(C1)OC)OC)C(=O)NO)C(C)(C)C,-2.89279
BHBPVVOUUXIZBX-UHFFFAOYSA-N,"BENZENESULFONAMIDE, 4-[(3-HYDROXYPROPYL)THIO]-",NS(=O)(=O)c1ccc(SCCCO)cc1,c1cc(ccc1SCCCO)S(=O)(=O)N,S(=O)(=O)(C1=CC=C(C=C1)SCCCO)N,-2.2471
BHJWEWRCZLLQLL-UHFFFAOYSA-N,,COc1ccc(Oc2cccc(/C=C/c3ccc(C(=O)O)cn3)c2)cc1,COc1ccc(cc1)Oc2cccc(c2)/C=C/c3ccc(cn3)C(=O)O,COC=1C=CC(=CC1)OC=2C=CC=C(C2)/C=C/C=3C=CC(=CN3)C(=O)O,-3.6575773000000003
BHMBPDNKBABRSD-UHFFFAOYSA-N,,COc1cc2c(NC(=O)Nc3c(C)cccc3C)ncnc2cc1OCCCN1CCCC1,Cc1cccc(c1NC(=O)Nc2c3cc(c(cc3ncn2)OCCCN4CCCC4)OC)C,COC=1C=C2C(=NC=NC2=CC1OCCCN3CCCC3)NC(=O)NC=4C(=CC=CC4C)C,-3.7879245999999998
BHPOBPHWWQFHIO-UHFFFAOYSA-N,,COc1ccccc1-c1c2c(nc3c1C(=O)CCC3)CCCC2=O,COc1ccccc1c2c3c(nc4c2C(=O)CCC4)CCCC3=O,COC=1C=CC=CC1C=2C3=C(N=C4C2C(=O)CCC4)CCCC3=O,-3.3767507000000005
BHQBQWOZHYUVTL-UHFFFAOYSA-N,[2-(3-methylbutoxy)ethyl]benzene,CC(C)CCOCCc1ccccc1,CC(C)CCOCCc1ccccc1,CC(C)CCOCCC=1C=CC=CC1,-3.933867892
BHQCQFFYRZLCQQ-UHFFFAOYSA-N,ursocholic acid,C[C@H](CCC(=O)O)[C@H]1CC[C@H]2[C@H]3[C@H](C[C@H](O)[C@@]21C)[C@@]1(C)CC[C@@H](O)C[C@H]1C[C@H]3O,C[C@H](CCC(=O)O)[C@H]1CC[C@@H]2[C@@]1([C@H](C[C@H]3[C@H]2[C@@H](C[C@H]4[C@@]3(CC[C@H](C4)O)C)O)O)C,OC1CCC2(C3CC(C4(C(CCC4C3C(CC2C1)O)C(C)CCC(=O)O)C)O)C,-3.3691
BHQZSXXOSYWJSZ-UHFFFAOYSA-N,dimethyl[3-(octadecyloxy)propyl]amine,CCCCCCCCCCCCCCCCCCOCCCN(C)C,CCCCCCCCCCCCCCCCCCOCCCN(C)C,CCCCCCCCCCCCCCCCCCOCCCN(C)C,-6.852027015
BHRMNOYJTKGEPT-UHFFFAOYSA-N,,N#Cc1cccc(C(=O)NCCS(=O)(=O)Cc2ccc(F)c(F)c2)c1,c1cc(cc(c1)C(=O)NCCS(=O)(=O)Cc2ccc(c(c2)F)F)C#N,FC=1C=CC(=CC1F)CS(=O)(=O)CCNC(=O)C=2C=CC=C(C2)C#N,-3.0
BHUYZDOCFMXZNI-UHFFFAOYSA-N,,COc1cc2ncnc(Nc3ccc(F)c(Cl)c3)c2cc1OCCCN1CCC(CCO)CC1,COc1cc2c(cc1OCCCN3CCC(CC3)CCO)c(ncn2)Nc4ccc(c(c4)Cl)F,COC=1C=C2N=CN=C(C2=CC1OCCCN3CCC(CC3)CCO)NC=4C=CC(=C(C4)Cl)F,-5.154902