inchikey,Name,SMILES_stand,SMILES,kekSmiles,logS
FBFBRAFXKGRRHI-UHFFFAOYSA-N,Sulfaproxyline,CC(C)Oc1ccc(C(=O)NS(=O)(=O)c2ccc(N)cc2)cc1,CC(C)Oc1ccc(cc1)C(=O)NS(=O)(=O)c2ccc(cc2)N,CC(C)OC1=CC=C(C=C1)C(=O)NS(=O)(=O)C2=CC=C(C=C2)N,-4.3
FBFCVJNZKBVVRP-UHFFFAOYSA-N,3-Ethanoyloxymethylphenytoin,CC(=O)OCN1C(=O)NC(c2ccccc2)(c2ccccc2)C1=O,CC(=O)OCN1C(=O)C(NC1=O)(c2ccccc2)c3ccccc3,O=C1N(C(=O)C(N1)(C=2C=CC=CC2)C=3C=CC=CC3)COC(=O)C,-4.47
FBFRNUBMFVKJRF-UHFFFAOYSA-N,,COc1cc2c(Nc3cnc(NC(=O)c4ccccc4)nc3)ncnc2cc1OCCNCC1CC1,COc1cc2c(cc1OCCNCC3CC3)ncnc2Nc4cnc(nc4)NC(=O)c5ccccc5,COC=1C=C2C(=NC=NC2=CC1OCCNCC3CC3)NC=4C=NC(=NC4)NC(=O)C=5C=CC=CC5,-3.9208187999999993
FBIDWNPTIHFANB-UHFFFAOYSA-N,,Cc1cccc(Cl)c1NC(=O)Nc1ncnc2cc(OCCCN3CCOCC3)ccc12,Cc1cccc(c1NC(=O)Nc2c3ccc(cc3ncn2)OCCCN4CCOCC4)Cl,CC=1C=CC=C(C1NC(=O)NC=2N=CN=C3C2C=CC(=C3)OCCCN4CCOCC4)Cl,-6.1249387
FBLAHUMENIHUGG-UHFFFAOYSA-N,3-hydroxy-N-(2-methylphenyl)naphthalene-2-carboxamide,Cc1ccccc1NC(=O)c1cc2ccccc2cc1O,Cc1ccccc1NC(=O)c2cc3ccccc3cc2O,CC=1C=CC=CC1NC(=O)C=2C=C3C=CC=CC3=CC2O,-4.623220977
FBMDQVBGIYSDTI-UHFFFAOYSA-N,"2,4-Bis((3-methoxypropyl)amino)-6-(methylthio)-s",COCCCNc1nc(NCCCOC)nc(SC)n1,COCCCNc1nc(nc(n1)SC)NCCCOC,N=1C(=NC(=NC1NCCCOC)SC)NCCCOC,-3.4791
FBMQNRKSAWNXBT-UHFFFAOYSA-N,DISPERSE VIOLET 1,Nc1ccc(N)c2c1C(=O)c1ccccc1C2=O,c1ccc2c(c1)C(=O)c3c(ccc(c3C2=O)N)N,NC=1C=CC(=C2C1C(=O)C3=C(C=CC=C3)C2=O)N,-5.859
FBOUIAKEJMZPQG-UHFFFAOYSA-N,Diniconazole,CC(C)(C)C(O)/C(=C\c1ccc(Cl)cc1Cl)n1cncn1,CC(C)(C)C(/C(=C\c1ccc(cc1Cl)Cl)/n2cncn2)O,ClC1=CC(=CC=C1/C=C(\C(O)C(C)(C)C)/N2N=CN=C2)Cl,-4.9110000000000005
FBOZXECLQNJBKD-UHFFFAOYSA-N,Methotrexate,CN(Cc1cnc2nc(N)nc(N)c2n1)c1ccc(C(=O)N[C@@H](CCC(=O)O)C(=O)O)cc1,CN(Cc1cnc2c(n1)c(nc(n2)N)N)c3ccc(cc3)C(=O)N[C@@H](CCC(=O)O)C(=O)O,CN(CC1=NC2=C(N=C1)N=C(N=C2N)N)C3=CC=C(C=C3)C(=O)NC(CCC(=O)O)C(=O)O,-4.0
FBPFZTCFMRRESA-UHFFFAOYSA-N,Sorbitol,OC[C@@H](O)[C@@H](O)[C@H](O)[C@H](O)CO,C([C@H]([C@H]([C@@H]([C@@H](CO)O)O)O)O)O,OCC(O)C(O)C(O)C(O)CO,0.0743
FBQQHUGEACOBDN-UHFFFAOYSA-N,OXYTHIOQUINOX,Cc1ccc2nc3sc(=O)sc3nc2c1,Cc1ccc2c(c1)nc3c(n2)sc(=O)s3,S1C2=C(N=C3C(=N2)C=CC(=C3)C)SC1=O,-5.3699
FBQTWGHLMQUOQL-UHFFFAOYSA-N,3-Propanoyloxymethylphenytoin,CCC(=O)OCN1C(=O)NC(c2ccccc2)(c2ccccc2)C1=O,CCC(=O)OCN1C(=O)C(NC1=O)(c2ccccc2)c3ccccc3,O=C1N(C(=O)C(N1)(C=2C=CC=CC2)C=3C=CC=CC3)COC(=O)CC,-4.9085
FBRCIMHGYVQUAH-UHFFFAOYSA-N,,COc1cc2c(Nc3ccc(NC(=O)c4ccccc4)cc3)ncnc2cc1OCCNCCCn1ccnc1,COc1cc2c(cc1OCCNCCCn3ccnc3)ncnc2Nc4ccc(cc4)NC(=O)c5ccccc5,COC=1C=C2C(=NC=NC2=CC1OCCNCCCN3C=CN=C3)NC=4C=CC(=CC4)NC(=O)C=5C=CC=CC5,-4.60206
FBRJYBGLCHWYOE-UHFFFAOYSA-N,Trifluoro-o-toluic_Acid,O=C(O)c1ccccc1C(F)(F)F,c1ccc(c(c1)C(=O)O)C(F)(F)F,OC(=O)C=1C=CC=CC1C(F)(F)F,-1.6
FBSFWRHWHYMIOG-UHFFFAOYSA-N,methyl_gallate,COC(=O)c1cc(O)c(O)c(O)c1,COC(=O)c1cc(c(c(c1)O)O)O,O=C(OC)C1=CC(=C(C(=C1)O)O)O,-1.24
FBTBJEFIXAQTNI-UHFFFAOYSA-N,,COc1ccc(-c2cc(C(N)=O)c(NC(N)=O)s2)cc1,COc1ccc(cc1)c2cc(c(s2)NC(=O)N)C(=O)N,COC=1C=CC(=CC1)C2=CC(=C(S2)NC(=O)N)C(=O)N,-4.4814861
FBUKVWPVBMHYJY-UHFFFAOYSA-N,Pelargonic_Acid,CCCCCCCCC(=O)O,CCCCCCCCC(=O)O,O=C(O)CCCCCCCC,-2.748
FBWPUBYHQDYCTQ-UHFFFAOYSA-O,,C[n+]1c(NCCN)c2ccccc2c2nn(-c3ccc(F)cc3)c(O)c21,C[n+]1c2c(c3ccccc3c1NCCN)nn(c2O)c4ccc(cc4)F,C[N+]1=C(C=2C(C=3C1=C(N(N3)C=4C=CC(=CC4)F)O)=CC=CC2)NCCN,-2.9329994
FBZZJMUNAOZYDR-UHFFFAOYSA-N,,CC(C)(CO)Nc1nc(SCc2ccccc2)nc2[nH]nnc12,CC(C)(CO)Nc1c2c([nH]nn2)nc(n1)SCc3ccccc3,OCC(C)(C)NC=1C=2N=NNC2N=C(N1)SCC=3C=CC=CC3,-4.594779099999999
FCAKQNAVWYYTER-UHFFFAOYSA-N,,CCCSc1nc(NC2CC2c2ccccc2)c2nnn(C3CC(C(N)=O)C(O)C3O)c2n1,CCCSc1nc(c2c(n1)n(nn2)C3CC(C(C3O)O)C(=O)N)NC4CC4c5ccccc5,C=1(C=CC=CC1)C2C(C2)NC=3N=C(N=C4C3N=NN4C5CC(C(C5O)O)C(=O)N)SCCC,-6.1311833
FCBBRODPXVPZAH-UHFFFAOYSA-N,5-NONANOL,CCCCC(O)CCCC,CCCCC(CCCC)O,OC(CCCC)CCCC,-2.49
FCBWWEFSVAHUHI-UHFFFAOYSA-N,,COc1cc2c(Nc3ccc(NC(=O)c4ccccc4)cc3)ncnc2cc1OCCNC1CC1,COc1cc2c(cc1OCCNC3CC3)ncnc2Nc4ccc(cc4)NC(=O)c5ccccc5,COC=1C=C2C(=NC=NC2=CC1OCCNC3CC3)NC=4C=CC(=CC4)NC(=O)C=5C=CC=CC5,-4.6575773
FCDITYROBVWZOO-UHFFFAOYSA-N,"1,3-Cyclohexanedione, 2,2'-ethylidenebis[5,5-dim",CC(C1C(=O)CC(C)(C)CC1=O)C1C(=O)CC(C)(C)CC1=O,CC(C1C(=O)CC(CC1=O)(C)C)C2C(=O)CC(CC2=O)(C)C,O=C1C(C(=O)CC(C1)(C)C)C(C2C(=O)CC(CC2=O)(C)C)C,-3.589
FCDUWMZKOMIDRK-UHFFFAOYSA-N,,COc1cc2c(Nc3cc(-c4ccc(C)cc4)[nH]n3)ncnc2cc1OCC1CCN(C)CC1,Cc1ccc(cc1)c2cc(n[nH]2)Nc3c4cc(c(cc4ncn3)OCC5CCN(CC5)C)OC,COC=1C=C2C(=NC=NC2=CC1OCC3CCN(CC3)C)NC=4C=C(NN4)C=5C=CC(=CC5)C,-5.721246400000001
FCJSHPDYVMKCHI-UHFFFAOYSA-N,Benzoin,O=C(Oc1ccccc1)c1ccccc1,c1ccc(cc1)C(=O)Oc2ccccc2,O(C1=CC=CC=C1)C(=O)C2=CC=CC=C2,-2.85
FCJSISFRKUULPL-UHFFFAOYSA-N,"Pteridine, 2-(methylamino)-",CNc1ncc2nccnc2n1,CNc1ncc2c(n1)nccn2,N=1C2=C(N=CC=N2)C=NC1NC,-1.712
FCLALJZVSQREKC-UHFFFAOYSA-N,,COc1cc2c(C3C(=O)Nc4ccc(F)cc43)ncnc2cc1OCCCN1CCOCC1,COc1cc2c(cc1OCCCN3CCOCC3)ncnc2C4c5cc(ccc5NC4=O)F,COC=1C=C2C(=NC=NC2=CC1OCCCN3CCOCC3)C4C(=O)NC5=C4C=C(C=C5)F,-5.2218487
FCNJMQQLEJAWPE-UHFFFAOYSA-N,,Cc1ccc(NC(=O)c2cc(F)cc(N3CCCC3)c2)cc1NC(=O)c1cccc(CN2CCNCC2)c1,Cc1ccc(cc1NC(=O)c2cccc(c2)CN3CCNCC3)NC(=O)c4cc(cc(c4)F)N5CCCC5,CC=1C=CC(=CC1NC(=O)C=2C=CC=C(C2)CN3CCNCC3)NC(=O)C=4C=C(C=C(C4)N5CCCC5)F,-5.721246400000001
FCOAHACKGGIURQ-UHFFFAOYSA-N,iprobenfos,CC(C)OP(=O)(OC(C)C)SCc1ccccc1,CC(C)OP(=O)(OC(C)C)SCc1ccccc1,P(=O)(SCC1=CC=CC=C1)(OC(C)C)OC(C)C,-2.858
FCOHEOSCARXMMS-UHFFFAOYSA-N,OXAZICLOMEFONE,CC1=C(c2ccccc2)C(=O)N(C(C)(C)c2cc(Cl)cc(Cl)c2)CO1,CC1=C(C(=O)N(CO1)C(C)(C)c2cc(cc(c2)Cl)Cl)c3ccccc3,C1=CC=CC=C1C2=C(OCN(C2=O)C(C)(C)C3=CC(=CC(=C3)Cl)Cl)C,-6.32
FCOURWMCEWGKGO-UHFFFAOYSA-N,2-Methoxy-4-(tetrahydro-4-methylene-2H-pyran-2-yl)phenol,C=C1CCOC(c2ccc(O)c(OC)c2)C1,COc1cc(ccc1O)C2CC(=C)CCO2,O1CCC(=C)CC1C2=CC(=C(C=C2)O)OC,-2.029
FCPHIXXWBHJXGF-UHFFFAOYSA-N,,Cc1ccc(NC(=O)c2cc(F)cc(N3CCOCC3)c2)cc1NC(=O)c1ccc(N(C)CCCN(C)C)nc1,Cc1ccc(cc1NC(=O)c2ccc(nc2)N(C)CCCN(C)C)NC(=O)c3cc(cc(c3)F)N4CCOCC4,CN(C)CCCN(C)C=1C=CC(=CN1)C(=O)NC=2C=C(C=CC2C)NC(=O)C=3C=C(C=C(C3)N4CCOCC4)F,-3.5228787000000006
FCPHNLIDILGKHN-UHFFFAOYSA-N,,COc1cc2c(Nc3ccc(F)c(Cl)c3)ncnc2cc1OCCn1ccnn1,COc1cc2c(cc1OCCn3ccnn3)ncnc2Nc4ccc(c(c4)Cl)F,COC=1C=C2C(=NC=NC2=CC1OCCN3C=CN=N3)NC=4C=CC(=C(C4)Cl)F,-6.6575773
FCPMNOHEDRIHHI-UHFFFAOYSA-N,,COc1cc2ncnc(Nc3ccc(F)c(Cl)c3)c2cc1OCCCN1CCN(C2CCN(C)CC2)CC1,CN1CCC(CC1)N2CCN(CC2)CCCOc3cc4c(cc3OC)ncnc4Nc5ccc(c(c5)Cl)F,COC=1C=C2N=CN=C(C2=CC1OCCCN3CCN(CC3)C4CCN(CC4)C)NC=5C=CC(=C(C5)Cl)F,-3.7212464
FCQJEPASRCXVCB-UHFFFAOYSA-N,"8-hydroxy-5,7-dinitronaphthalene-2-sulfonic acid",O=[N+]([O-])c1cc([N+](=O)[O-])c2ccc(S(=O)(=O)O)cc2c1O,c1cc2c(cc1S(=O)(=O)O)c(c(cc2[N+](=O)[O-])[N+](=O)[O-])O,C1=CC2=C(C=C1S(=O)(=O)O)C(=C(C=C2[N+](=O)[O-])[N+](=O)[O-])O,-2.5385
FCRPWTLJKLAJOH-UHFFFAOYSA-N,,O=C(Cc1ccccc1)N1CCN(c2ncnc3[nH]cnc23)CC1,c1ccc(cc1)CC(=O)N2CCN(CC2)c3c4c([nH]cn4)ncn3,O=C(CC=1C=CC=CC1)N2CCN(CC2)C=3N=CN=C4C3N=CN4,-3.8239087
FCRSOBDFPFGDHL-UHFFFAOYSA-N,N-ISONICOTINOYL-N'-(PHENYLACETYL)HYDRAZINE,O=C(Cc1ccccc1)NNC(=O)c1ccncc1,c1ccc(cc1)CC(=O)NNC(=O)c2ccncc2,O=C(CC1=CC=CC=C1)NNC(=O)C2=CC=NC=C2,-2.47
FCSHMCFRCYZTRQ-UHFFFAOYSA-N,"1,3-Diphenylthiourea",S=C(Nc1ccccc1)Nc1ccccc1,c1ccc(cc1)NC(=S)Nc2ccccc2,S=C(NC=1C=CC=CC1)NC=2C=CC=CC2,-3.972
FCTDXVQYLPZTNX-UHFFFAOYSA-N,"14H-Dibenzo[a,j]phenothiazine",c1ccc2c3c(ccc2c1)Sc1ccc2ccccc2c1N3,c1ccc2c(c1)ccc3c2Nc4c5ccccc5ccc4S3,N1C=2C(=CC=C3C2C=CC=C3)SC4=C1C=5C(C=C4)=CC=CC5,-7.90805
FCWHQBIYQDSYAN-UHFFFAOYSA-N,,COc1cc2c(Nc3ccc(Oc4cccc(C(=O)NC5CC5)c4)cc3)c(C#N)cnc2cc1OCCCN1CC(C)OC(C)C1,CC1CN(CC(O1)C)CCCOc2cc3c(cc2OC)c(c(cn3)C#N)Nc4ccc(cc4)Oc5cccc(c5)C(=O)NC6CC6,COC=1C=C2C(=C(C=NC2=CC1OCCCN3CC(OC(C3)C)C)C#N)NC=4C=CC(=CC4)OC=5C=CC=C(C5)C(=O)NC6CC6,-6.0177288
FCYQIDFMSYIAEB-UHFFFAOYSA-N,"9-(methoxymethoxy)-3-methyl-2,4,4~{a},5,6,7,7~{a},13-octahydro-1~{H}-4,12-methanobenzofuro[3,2-e]isoquinolin-7-ol",COCOc1ccc2c3c1OC1C(O)CCC4C(C2)N(C)CCC341,CN1CCC23c4c5ccc(c4OC2C(CCC3C1C5)O)OCOC,O(COC=1C2=C3C(=CC1)CC4C5C3(C(O2)C(CC5)O)CCN4C)C,-1.959
FCZCIRUCCZUXMC-UHFFFAOYSA-N,"2,3,4,6-TETRACHLOROPHENOXYACETIC  ACID",O=C(O)COc1c(Cl)cc(Cl)c(Cl)c1Cl,c1c(c(c(c(c1Cl)Cl)Cl)OCC(=O)O)Cl,OC(=O)COC1=C(C(=C(C=C1Cl)Cl)Cl)Cl,-3.41
FCZMZGABGNABAR-UHFFFAOYSA-N,,COc1ccc(OC)c(Oc2ccc(Nc3c(C#N)cnc4cc(OCCCN5CCOCC5)c(OC)cc34)cc2)c1,COc1ccc(c(c1)Oc2ccc(cc2)Nc3c4cc(c(cc4ncc3C#N)OCCCN5CCOCC5)OC)OC,COC=1C=CC(=C(C1)OC=2C=CC(=CC2)NC=3C(=CN=C4C3C=C(C(=C4)OCCCN5CCOCC5)OC)C#N)OC,-6.0257935
FDAKZQLBIFPGSV-UHFFFAOYSA-N,"N-Butyl-2,2,6,6-tetramethylpiperidin-4-amine",CCCCNC1CC(C)(C)NC(C)(C)C1,CCCCNC1CC(NC(C1)(C)C)(C)C,CCCCNC1CC(NC(C1)(C)C)(C)C,0.574607515
FDATWRLUYRHCJE-UHFFFAOYSA-N,Hexyl 2-[4-(diethylamino)-2-hydroxybenzoyl]benzoate,CCCCCCOC(=O)c1ccccc1C(=O)c1ccc(N(CC)CC)cc1O,CCCCCCOC(=O)c1ccccc1C(=O)c2ccc(cc2O)N(CC)CC,CCCCCCOC(=O)C=1C=CC=CC1C(=O)C=2C=CC(=CC2O)N(CC)CC,-7.3952335389999995
FDAYLTPAFBGXAB-UHFFFAOYSA-N,TRIS(BETA-CHLOROETHYL)AMINE,ClCCN(CCCl)CCCl,C(CCl)N(CCCl)CCCl,N(CCCl)(CCCl)CCCl,-3.1069999999999998
FDBAMFLAKDQFRN-UHFFFAOYSA-N,,CCN(C(=O)Cc1ccc(S(C)(=O)=O)cc1)C1CCN(CCNc2ccccc2)CC1,CCN(C1CCN(CC1)CCNc2ccccc2)C(=O)Cc3ccc(cc3)S(=O)(=O)C,CCN(C1CCN(CC1)CCNC=2C=CC=CC2)C(=O)CC=3C=CC(=CC3)S(=O)(=O)C,-3.39794
FDBJNQUXZRDJHC-UHFFFAOYSA-N,"Alkenes, C9-11, C10-rich",C=C/C=C/CC/C=C/CC,CC/C=C/CC/C=C/C=C,CC/C=C/CC/C=C/C=C,-3.34190657
FDDDEECHVMSUSB-UHFFFAOYSA-N,Sulfanilamide,Nc1ccc(S(N)(=O)=O)cc1,c1cc(ccc1N)S(=O)(=O)N,S(=O)(=O)(N)C=1C=CC(=CC1)N,-1.361
FDEABYDIRZEBLW-UHFFFAOYSA-N,"sodium 1-amino-9,10-dihydro-4-[[4-[[(4-methylphenyl)sulphonyl]oxy]phenyl]amino]-9,10-dioxoanthracene-2-sulphonate",Cc1ccc(S(=O)(=O)Oc2ccc(Nc3cc(S(=O)(=O)O)c(N)c4c3C(=O)c3ccccc3C4=O)cc2)cc1,Cc1ccc(cc1)S(=O)(=O)Oc2ccc(cc2)Nc3cc(c(c4c3C(=O)c5ccccc5C4=O)N)S(=O)(=O)O,CC=1C=CC(=CC1)S(=O)(=O)OC=2C=CC(=CC2)NC=3C=C(C(=C4C3C(=O)C5=C(C=CC=C5)C4=O)N)S(=O)(=O)O,-2.622099238
FDEQNMJNFBMQKO-UHFFFAOYSA-N,,CN(C)CCNC(=O)c1ccc(Nc2ncc(Br)c(Nc3ccccc3)n2)cc1F,CN(C)CCNC(=O)c1ccc(cc1F)Nc2ncc(c(n2)Nc3ccccc3)Br,CN(C)CCNC(=O)C=1C=CC(=CC1F)NC=2N=CC(=C(N2)NC=3C=CC=CC3)Br,-4.2839967
FDFFIRBQXNSENP-UHFFFAOYSA-N,,CCC(CS(=O)(=O)c1ccc(Oc2ccc(Cl)cc2)cc1)N(O)C=O,CCC(CS(=O)(=O)c1ccc(cc1)Oc2ccc(cc2)Cl)N(C=O)O,CCC(CS(=O)(=O)C=1C=CC(=CC1)OC=2C=CC(=CC2)Cl)N(O)C=O,-4.30103
FDGLZZQHPXHDGZ-UHFFFAOYSA-N,,COCCOCCOc1cc2ncnc(Oc3ccc4[nH]ccc4c3)c2cc1OC,COCCOCCOc1cc2c(cc1OC)c(ncn2)Oc3ccc4c(c3)cc[nH]4,COCCOCCOC=1C=C2N=CN=C(C2=CC1OC)OC=3C=CC=4NC=CC4C3,-4.05061
FDGQSTZJBFJUBT-UHFFFAOYSA-N,Hypoxanthine,O=c1[nH]cnc2[nH]cnc12,c1[nH]c2c(n1)c(=O)[nH]cn2,O=C1NC=NC2=C1NC=N2,-2.2894
FDHQEJALNMUUDH-UHFFFAOYSA-N,4-Amino-N-(6-iodo-3-pyridinyl)benzenesulfonamide,Nc1ccc(S(=O)(=O)Nc2ccc(I)nc2)cc1,c1cc(ccc1N)S(=O)(=O)Nc2ccc(nc2)I,NC1=CC=C(C=C1)S(=O)(=O)NC2=CN=C(C=C2)I,-1.8105
FDIXNAXZGRMYGR-UHFFFAOYSA-N,"Butanedioic acid, (1-phenylethylidene)-, (Z)",C/C(=C(/CC(=O)O)C(=O)O)c1ccccc1,C/C(=C(/CC(=O)O)\C(=O)O)/c1ccccc1,O=C(O)/C(=C(/C1=CC=CC=C1)\C)/CC(=O)O,-2.0269999999999997
FDJYFLPCKCKZKU-UHFFFAOYSA-N,,CC(C)NCC(O)COc1ccc(Nc2ncc(Cl)c(Nc3ccc(F)cc3)n2)cc1,CC(C)NCC(COc1ccc(cc1)Nc2ncc(c(n2)Nc3ccc(cc3)F)Cl)O,CC(C)NCC(O)COC=1C=CC(=CC1)NC=2N=CC(=C(N2)NC=3C=CC(=CC3)F)Cl,-4.236572
FDKXTQMXEQVLRF-UHFFFAOYSA-N,dacarbazine,CN(C)/N=N/c1nc[nH]c1C(N)=O,CN(C)/N=N/c1c([nH]cn1)C(=O)N,CN(C)/N=N/C1=C(NC=N1)C(=O)N,-1.637251407
FDLFMPKQBNPIER-UHFFFAOYSA-N,ditolyl_ether,Cc1cccc(Oc2cccc(C)c2)c1,Cc1cccc(c1)Oc2cccc(c2)C,CC=1C=CC=C(C1)OC=2C=CC=C(C2)C,-4.85
FDLYAMZZIXQODN-UHFFFAOYSA-N,olaparib,O=C(c1cc(Cc2n[nH]c(=O)c3ccccc23)ccc1F)N1CCN(C(=O)C2CC2)CC1,c1ccc2c(c1)c(n[nH]c2=O)Cc3ccc(c(c3)C(=O)N4CCN(CC4)C(=O)C5CC5)F,C1CC1C(=O)N2CCN(CC2)C(=O)C3=C(C=CC(=C3)CC4=NNC(=O)C=5C4=CC=CC5)F,-3.637949798
FDLZXQOOTWLAOB-UHFFFAOYSA-N,4-[(4-chloro-2-nitrophenyl)diazenyl]-3-hydroxy-N-(2-methylphenyl)-2-naphthamide,Cc1ccccc1NC(=O)C1=Cc2ccccc2/C(=N\Nc2ccc(Cl)cc2[N+](=O)[O-])C1=O,Cc1ccccc1NC(=O)C2=Cc3ccccc3/C(=N\Nc4ccc(cc4[N+](=O)[O-])Cl)/C2=O,CC=1C=CC=CC1NC(=O)C2=CC=3C=CC=CC3/C(=N/NC=4C=CC(=CC4[N+](=O)[O-])Cl)/C2=O,-7.563107245
FDOREZYKXWLCPI-UHFFFAOYSA-N,,CC(=O)N1CCN(c2ccc(S(=O)(=O)c3ccc(NC(=O)C(C)(O)C(F)(F)F)c(Cl)c3)cc2)CC1,CC(=O)N1CCN(CC1)c2ccc(cc2)S(=O)(=O)c3ccc(c(c3)Cl)NC(=O)C(C)(C(F)(F)F)O,CC(=O)N1CCN(CC1)C=2C=CC(=CC2)S(=O)(=O)C=3C=CC(=C(C3)Cl)NC(=O)C(C)(O)C(F)(F)F,-5.19382
FDORWDSKZBVQSQ-UHFFFAOYSA-N,"BENZENESULFONAMIDE, 4-[(5-HYDROXYPENTYL)THIO]-",NS(=O)(=O)c1ccc(SCCCCCO)cc1,c1cc(ccc1SCCCCCO)S(=O)(=O)N,S(=O)(=O)(C=1C=CC(=CC1)SCCCCCO)N,-2.6619
FDPFBQSVSMHCLI-UHFFFAOYSA-N,,COc1cc2c(Nc3ccc(Oc4ccccc4OC)cc3)c(C#N)cnc2cc1OCCCN(CCO)CCO,COc1ccccc1Oc2ccc(cc2)Nc3c4cc(c(cc4ncc3C#N)OCCCN(CCO)CCO)OC,COC=1C=CC=CC1OC=2C=CC(=CC2)NC=3C(=CN=C4C3C=C(C(=C4)OCCCN(CCO)CCO)OC)C#N,-5.3565473
FDQGNLOWMMVRQL-UHFFFAOYSA-N,"allobarbital; 5,5-diallylbarbituric  acid",C=CCC1(CC=C)C(=O)NC(=O)NC1=O,C=CCC1(C(=O)NC(=O)NC1=O)CC=C,O=C1NC(=O)NC(=O)C1(CC=C)CC=C,-2.0608
FDQRYJSBXWMVHG-UHFFFAOYSA-N,,O=C(O)c1csc(NC(=O)C(CC2CCCC2)c2ccc(Cl)c(Cl)c2)n1,c1cc(c(cc1C(CC2CCCC2)C(=O)Nc3nc(cs3)C(=O)O)Cl)Cl,OC(=O)C1=CSC(=N1)NC(=O)C(CC2CCCC2)C=3C=CC(=C(C3)Cl)Cl,-4.455932
FDTAPWXEVQBQFI-UHFFFAOYSA-N,,COc1cc2ncnc(Nc3cccc(Cl)c3)c2cc1OCCCN1CCCCC1,COc1cc2c(cc1OCCCN3CCCCC3)c(ncn2)Nc4cccc(c4)Cl,COC=1C=C2N=CN=C(C2=CC1OCCCN3CCCCC3)NC=4C=CC=C(C4)Cl,-2.9208187999999997
FDTLQXNAPKJJAM-UHFFFAOYSA-N,DISPERSE YELLOW 54,O=C1c2ccccc2C(=O)C1c1nc2ccccc2cc1O,c1ccc2c(c1)cc(c(n2)C3C(=O)c4ccccc4C3=O)O,C12=C(C=CC=C1)C(=O)C(C2=O)C3=NC4=C(C=C3O)C=CC=C4,-8.0
FDTMXYKUFIZEMG-UHFFFAOYSA-N,"n,n-dimethyl-2-[(2-acetoxy)benzoyloxy]acetamide",CC(=O)Oc1ccccc1C(=O)OCC(=O)N(C)C,CC(=O)Oc1ccccc1C(=O)OCC(=O)N(C)C,CN(C)C(=O)COC(=O)C1=CC=CC=C1OC(=O)C,-1.5495
FDVIWMOCISPIHI-UHFFFAOYSA-N,N-{(E)-[5-(Hydroxymethyl)-2-methyl-3-oxo-4(3H)-pyridinylidene]methyl}-L-valine,Cc1ncc(CO)c(/C=N/C(C(=O)O)C(C)C)c1O,Cc1c(c(c(cn1)CO)/C=N/C(C(C)C)C(=O)O)O,CC1=NC=C(C(=C1O)/C=N/C(C(=O)O)C(C)C)CO,-1.6015
FDWRKVKXYZRYOD-UHFFFAOYSA-N,"2,2',2'',2'''-(ethane-1,2-diyldinitrilo)tetraacetonitrile",N#CCN(CC#N)CCN(CC#N)CC#N,C(CN(CC#N)CC#N)N(CC#N)CC#N,N#CCN(CCN(CC#N)CC#N)CC#N,-2.836241432
FDXVHZCFTCIKDD-UHFFFAOYSA-N,Pigment red 149,Cc1cc(C)cc(N2C(=O)c3ccc4c5ccc6c7c(ccc(c8ccc(c3c48)C2=O)c75)C(=O)N(c2cc(C)cc(C)c2)C6=O)c1,Cc1cc(cc(c1)N2C(=O)c3ccc4c5ccc6c7c5c(ccc7C(=O)N(C6=O)c8cc(cc(c8)C)C)c9c4c3c(cc9)C2=O)C,CC=1C=C(C=C(C1)N2C(=O)C=3C=CC=4C=5C=CC6=C7C5C(=CC=C7C(=O)N(C6=O)C=8C=C(C=C(C8)C)C)C=9C4C3C(=CC9)C2=O)C,-7.476148795
FDYJJKHDNNVUDR-UHFFFAOYSA-N,2-Ethyl-2-methyl-succinic acid,CCC(C)(CC(=O)O)C(=O)O,CCC(C)(CC(=O)O)C(=O)O,C(C(=O)O)(CC(=O)O)(CC)C,-0.0171
FDYMERLIFOUIRZ-UHFFFAOYSA-N,Coroxon,CCOP(=O)(OCC)Oc1ccc2c(C)c(Cl)c(=O)oc2c1,CCOP(=O)(OCC)Oc1ccc2c(c(c(=O)oc2c1)Cl)C,CCOP(=O)(OCC)OC1=CC2=C(C=C1)C(=C(C(=O)O2)Cl)C,-3.18
FEAGEBMKFLKCAM-UHFFFAOYSA-N,,CC1CN(S(=O)(=O)c2ccc(C(=O)N(C)C)cc2)C(C)CN1C(=O)C(C)(O)C(F)(F)F,CC1CN(C(CN1S(=O)(=O)c2ccc(cc2)C(=O)N(C)C)C)C(=O)C(C)(C(F)(F)F)O,CC1CN(C(CN1C(=O)C(C)(O)C(F)(F)F)C)S(=O)(=O)C=2C=CC(=CC2)C(=O)N(C)C,-2.7447275
FEALZKNFXRGXNS-UHFFFAOYSA-N,N4-ACETYL-N1-(1-ETHYL-2-OXOPYRIMIDIN-4-YL)SULFANILAMIDE; 4-(N4-Acetylsulfanilamido)-1-ethyl-1H-pyrimidin-2-one; N4-Acetylsulfacytine,CCn1ccc(NS(=O)(=O)c2ccc(NC(C)=O)cc2)nc1=O,CCn1ccc(nc1=O)NS(=O)(=O)c2ccc(cc2)NC(=O)C,CCN1C=CC(=NC1=O)NS(=O)(=O)C2=CC=C(C=C2)NC(=O)C,-2.71
FEAYCPPHRFVXPQ-UHFFFAOYSA-N,,O=C(O)Cc1csc(NC(=O)c2cc(OCc3ccccc3Cl)cc(OCc3ccccc3Cl)c2)n1,c1ccc(c(c1)COc2cc(cc(c2)OCc3ccccc3Cl)C(=O)Nc4nc(cs4)CC(=O)O)Cl,OC(=O)CC1=CSC(=N1)NC(=O)C=2C=C(C=C(C2)OCC=3C=CC=CC3Cl)OCC=4C=CC=CC4Cl,-7.0
FEBOTPHFXYHVPL-UHFFFAOYSA-N,Benperidol,O=C(CCCN1CCC(n2c(=O)[nH]c3ccccc32)CC1)c1ccc(F)cc1,c1ccc2c(c1)[nH]c(=O)n2C3CCN(CC3)CCCC(=O)c4ccc(cc4)F,C1CC(CCN1CCCC(=O)C2=CC=C(C=C2)F)N3C4=CC=CC=C4NC3=O,-4.28
FECDACOUYKFOOP-UHFFFAOYSA-N,2-ethylhexyl 2-hydroxypropanoate,CCCCC(CC)COC(=O)[C@H](C)O,CCCCC(CC)COC(=O)[C@H](C)O,CCCCC(CC)COC(=O)[C@H](C)O,-2.673762855
FEEIBVYVIHWTBM-UHFFFAOYSA-N,,N#Cc1ccc(-c2cc(C(N)=O)c(NC(N)=O)s2)cc1,c1cc(ccc1C#N)c2cc(c(s2)NC(=O)N)C(=O)N,NC(=O)NC=1SC(=CC1C(=O)N)C=2C=CC(=CC2)C#N,-5.154902
FEFFSKLJNYRHQN-UHFFFAOYSA-N,"(2S)-2-(1,3-dioxoisoindol-2-yl)pentanedioic acid",O=C(O)CC[C@@H](C(=O)O)N1C(=O)c2ccccc2C1=O,c1ccc2c(c1)C(=O)N(C2=O)[C@@H](CCC(=O)O)C(=O)O,OC(=O)CC[C@H](N1C(=O)C=2C=CC=CC2C1=O)C(=O)O,-1.4461658430000002
FEFFZKPQSVTBAY-UHFFFAOYSA-N,"1-Butanone, 1-(4-fluorophenyl)-4-(4-hydroxy-4-ph",O=C(CCCN1CCC(O)(c2ccccc2)CC1)c1ccc(F)cc1,c1ccc(cc1)C2(CCN(CC2)CCCC(=O)c3ccc(cc3)F)O,OC1(CCN(CC1)CCCC(=O)C=2C=CC(=CC2)F)C=3C=CC=CC3,-2.8710000000000004
FEFQUIPMKBPKAR-UHFFFAOYSA-N,"2H-Azepin-2-one, 1-benzoylhexahydro-",O=C1CCCCCN1C(=O)c1ccccc1,c1ccc(cc1)C(=O)N2CCCCCC2=O,O=C1CCCCCN1C(=O)C=2C=CC=CC2,-2.167
FEHMNUNVDNGBFI-UHFFFAOYSA-N,"2,4,6-Cycloheptatrien-1-one, 3,7-dibromo-2-hydro",CC(C)c1ccc(Br)c(=O)c(O)c1Br,CC(C)c1ccc(c(=O)c(c1Br)O)Br,C1(=C(C(=CC=C(C1=O)Br)C(C)C)Br)O,-4.466
FEHNOBYEEZPXBI-UHFFFAOYSA-N,,Brc1cnc(Nc2ccc(OCCCn3ccnc3)cc2)nc1Nc1ccccc1,c1ccc(cc1)Nc2c(cnc(n2)Nc3ccc(cc3)OCCCn4ccnc4)Br,BrC=1C=NC(=NC1NC=2C=CC=CC2)NC=3C=CC(=CC3)OCCCN4C=CN=C4,-6.920818799999999
FEHVCSLIRORHFH-UHFFFAOYSA-N,,O=C(c1ccc(-c2cnc[nH]2)cc1)N1CCN(S(=O)(=O)c2ccc3cc(Cl)ccc3c2)CC1,c1cc(ccc1c2cnc[nH]2)C(=O)N3CCN(CC3)S(=O)(=O)c4ccc5cc(ccc5c4)Cl,ClC=1C=CC=2C=C(C=CC2C1)S(=O)(=O)N3CCN(CC3)C(=O)C=4C=CC(=CC4)C5=CN=CN5,-6.387216099999999
FEIQOMCWGDNMHM-UHFFFAOYSA-N,"5-PHENYL-2,4-PENTADIENOIC  ACID",O=C(O)/C=C/C=C/c1ccccc1,c1ccc(cc1)/C=C/C=C/C(=O)O,OC(=O)/C=C/C=C/C1=CC=CC=C1,-3.64
FEJKLNWAOXSSNR-UHFFFAOYSA-N,"benzoic acid,2aco-,4(acam)ph ester",CC(=O)Nc1ccc(OC(=O)c2ccccc2OC(C)=O)cc1,CC(=O)Nc1ccc(cc1)OC(=O)c2ccccc2OC(=O)C,CC(=O)NC=1C=CC(=CC1)OC(=O)C=2C=CC=CC2OC(=O)C,-4.19495
FEJPWLNPOFOBSP-UHFFFAOYSA-N,C.I. 11115,CCN(CCO)c1ccc(/N=N/c2ccc([N+](=O)[O-])cc2Cl)cc1,CCN(CCO)c1ccc(cc1)/N=N/c2ccc(cc2Cl)[N+](=O)[O-],O=[N+]([O-])C1=CC=C(C(=C1)Cl)/N=N/C2=CC=C(C=C2)N(CC)CCO,-7.462999999999999
FEKBRGQACYDHJM-UHFFFAOYSA-N,,COc1cc2ncc(C#N)c(Nc3ccc(Oc4nccs4)cc3)c2cc1NC(C)=O,CC(=O)Nc1cc2c(cc1OC)ncc(c2Nc3ccc(cc3)Oc4nccs4)C#N,COC=1C=C2N=CC(=C(C2=CC1NC(=O)C)NC=3C=CC(=CC3)OC4=NC=CS4)C#N,-6.1630433
FELGMEQIXOGIFQ-UHFFFAOYSA-N,ondansetron hydrochloride,Cc1nccn1CC1CCc2c(c3ccccc3n2C)C1=O,Cc1nccn1CC2CCc3c(c4ccccc4n3C)C2=O,CC1=NC=CN1CC2CCC3=C(C4=CC=CC=C4N3C)C2=O,-1.013127009
FELIOFPKXBRTDM-UHFFFAOYSA-O,,Cc1ccc(-n2n[n+]3c(c(C)cc4ccccc43)c2O)cc1,Cc1ccc(cc1)n2c(c3c(cc4ccccc4[n+]3n2)C)O,C=1C=C(C=CC1C)N2N=[N+]3C(=C2O)C(=CC=4C3=CC=CC4)C,-5.092189599999999
FELSOTPKAIENCI-UHFFFAOYSA-N,METHYL 4-NITROPHENYLSULFONYLCYCLOPROPYLCARBOXYLATE; 1-(4-Nitrophenylsulfonyl)cyclopropane-2-carboxylic acid methyl ester,COC(=O)C1CC1S(=O)(=O)c1ccc([N+](=O)[O-])cc1,COC(=O)C1CC1S(=O)(=O)c2ccc(cc2)[N+](=O)[O-],COC(=O)C1CC1S(=O)(=O)C2=CC=C(C=C2)[N+](=O)[O-],-3.38
FELVZCWCSXALEG-UHFFFAOYSA-N,N-(2-Bromo-4-methylpentanoyl)alanylalanine,CC(C)CC(Br)C(=O)NC(C)C(=O)NC(C)C(=O)O,CC(C)CC(C(=O)NC(C)C(=O)NC(C)C(=O)O)Br,CC(C)CC(Br)C(=O)NC(C)C(=O)NC(C)C(=O)O,-1.43
FEMFCJBMFFTFLG-UHFFFAOYSA-N,,COc1ccccc1Oc1ccc(Nc2c(C#N)cnc3ccc(NC(=O)CCN4CCCCC4)cc23)cc1,COc1ccccc1Oc2ccc(cc2)Nc3c4cc(ccc4ncc3C#N)NC(=O)CCN5CCCCC5,COC=1C=CC=CC1OC=2C=CC(=CC2)NC=3C(=CN=C4C3C=C(C=C4)NC(=O)CCN5CCCCC5)C#N,-5.844664
FEMTVNYXPKMRER-UHFFFAOYSA-N,,COc1cc2c(Oc3ccc(Cl)cc3F)ncnc2cc1OCC1CCC(=O)N1,COc1cc2c(cc1OCC3CCC(=O)N3)ncnc2Oc4ccc(cc4F)Cl,COC=1C=C2C(=NC=NC2=CC1OCC3CCC(=O)N3)OC=4C=CC(=CC4F)Cl,-4.695737
FEMZVDSBIXDODB-UHFFFAOYSA-N,"7-(3-amino-3-methylazetidin-1-yl)-1-cyclopropyl-6,8-difluoro-4-oxoquinoline-3-carboxylic acid",CC1(N)CN(c2c(F)cc3c(=O)c(C(=O)O)cn(C4CC4)c3c2F)C1,CC1(CN(C1)c2c(cc3c(c2F)n(cc(c3=O)C(=O)O)C4CC4)F)N,FC=1C(=C(C=C2C1N(C=C(C2=O)C(=O)O)C3CC3)F)N4CC(C4)(N)C,-5.638999999999999
FENLPGARWVQRJL-UHFFFAOYSA-N,"3,3-dimethyl-6-nitro-2-benzofuran-1-one",CC1(C)OC(=O)c2cc([N+](=O)[O-])ccc21,CC1(c2ccc(cc2C(=O)O1)[N+](=O)[O-])C,CC1(OC(=O)C2=C1C=CC(=C2)[N+](=O)[O-])C,-3.0516
FEPBITJSIHRMRT-UHFFFAOYSA-N,sodium 4-hydroxybenzene-1-sulfonate,O=S(=O)(O)c1ccc(O)cc1,c1cc(ccc1O)S(=O)(=O)O,OC=1C=CC(=CC1)S(=O)(=O)O,0.759
FERFUBSFSRZOBT-UHFFFAOYSA-N,Boc-Phe-His-Sta-Leu-NH-CH2-CH(NH2)-2-Pyridyl;  (Analog 8),CC(C)CC(NC(=O)CC(O)C(CC(C)C)NC(=O)C(Cc1c[nH]cn1)NC(=O)C(Cc1ccccc1)NC(=O)OC(C)(C)C)C(=O)NCC(N)c1ccccn1,CC(C)CC(C(CC(=O)NC(CC(C)C)C(=O)NCC(c1ccccn1)N)O)NC(=O)C(Cc2c[nH]cn2)NC(=O)C(Cc3ccccc3)NC(=O)OC(C)(C)C,CC(C)CC(NC(=O)C(CC1=CNC=N1)NC(=O)C(CC2=CC=CC=C2)NC(=O)OC(C)(C)C)C(O)CC(=O)NC(CC(C)C)C(=O)NCC(N)C3=CC=CC=N3,-3.4
FEROPKNOYKURCJ-UHFFFAOYSA-N,,COc1cc(N)c(Cl)cc1C(=O)NC1CN2CCC1CC2,COc1cc(c(cc1C(=O)NC2CN3CCC2CC3)Cl)N,ClC=1C=C(C(=CC1N)OC)C(=O)NC2C3CCN(C2)CC3,0.5125