inchikey,Name,SMILES_stand,SMILES,kekSmiles,logS
FJLDYBQZVMOCLR-UHFFFAOYSA-N,,Cc1ccc2c(c1)C=Cc1cc(C)ccc1C2c1cn(Cc2ccc(C(=O)Nc3nc(CC(=O)O)cs3)o2)c(=O)[nH]c1=S,Cc1ccc2c(c1)C=Cc3cc(ccc3C2c4cn(c(=O)[nH]c4=S)Cc5ccc(o5)C(=O)Nc6nc(cs6)CC(=O)O)C,O=C(O)CC1=CSC(=N1)NC(=O)C2=CC=C(O2)CN3C=C(C(=S)NC3=O)C4C=5C(=CC(=CC5)C)C=CC=6C4=CC=C(C6)C,-5.8827457
FJLGEFLZQAZZCD-UHFFFAOYSA-N,fluvastatin sodium,CC(C)n1c(/C=C/[C@@H](O)C[C@@H](O)CC(=O)O)c(-c2ccc(F)cc2)c2ccccc21,CC(C)n1c2ccccc2c(c1/C=C/[C@H](C[C@H](CC(=O)O)O)O)c3ccc(cc3)F,OC(=O)CC(O)CC(O)/C=C/C1=C(C2=CC=CC=C2N1C(C)C)C3=CC=C(C=C3)F,-2.3839845019999997
FJLSLWVDNFOIOQ-UHFFFAOYSA-N,,COc1cc2c(Nc3cnc(OCc4cccc(Cl)c4)nc3)ncnc2cc1OCCCNC(C)(C)CCO,CC(C)(CCO)NCCCOc1cc2c(cc1OC)c(ncn2)Nc3cnc(nc3)OCc4cccc(c4)Cl,COC=1C=C2C(=NC=NC2=CC1OCCCNC(C)(C)CCO)NC=3C=NC(=NC3)OCC=4C=CC=C(C4)Cl,-4.920818799999999
FJLUATLTXUNBOT-UHFFFAOYSA-N,"Amines, C16-18 and C18-unsatd. alkyl",CCCCCCCCCCCCCCCCN,CCCCCCCCCCCCCCCCN,CCCCCCCCCCCCCCCCN,-3.583755022
FJMDSQWTIPKDDZ-UHFFFAOYSA-N,,COCCOc1ccccc1-c1cc(C(N)=O)c(NC(N)=O)s1,COCCOc1ccccc1c2cc(c(s2)NC(=O)N)C(=O)N,COCCOC=1C=CC=CC1C2=CC(=C(S2)NC(=O)N)C(=O)N,-4.8068754
FJOYZTHZZSSAOF-UHFFFAOYSA-N,,CCNc1ccccc1Oc1ccc(Nc2c(C#N)cnc3cc(OC)c(OC)cc23)cc1,CCNc1ccccc1Oc2ccc(cc2)Nc3c4cc(c(cc4ncc3C#N)OC)OC,CCNC=1C=CC=CC1OC=2C=CC(=CC2)NC=3C(=CN=C4C3C=C(C(=C4)OC)OC)C#N,-6.455932
FJSZPKZEVIOLKK-UHFFFAOYSA-N,,CCc1cc(C)cc(Nc2cc(C)nc(N)n2)c1,CCc1cc(cc(c1)Nc2cc(nc(n2)N)C)C,CCC=1C=C(C=C(C1)NC=2C=C(N=C(N2)N)C)C,-3.1426675
FJUWPQQIZCJAHB-UHFFFAOYSA-N,,COc1ccc(C#N)c(O)n1,COc1ccc(c(n1)O)C#N,COC=1C=CC(=C(N1)O)C#N,-2.5228787
FJVAAURIDNIYAE-UHFFFAOYSA-N,Nidroxyzone,NC(=O)N(CCO)/N=C/c1ccc([N+](=O)[O-])o1,c1cc(oc1/C=N/N(CCO)C(=O)N)[N+](=O)[O-],NC(=O)N(CCO)/N=C/C=1OC(=CC1)[N+](=O)[O-],-2.6851
FJVGJPWMSXGWBK-UHFFFAOYSA-N,,CC(C)n1c2ccccc2c2cc(Nc3ccc(C(=O)N(C)CCO)nn3)ccc21,CC(C)n1c2ccccc2c3c1ccc(c3)Nc4ccc(nn4)C(=O)N(C)CCO,CC(C)N1C=2C=CC=CC2C3=C1C=CC(=C3)NC=4C=CC(=NN4)C(=O)N(C)CCO,-4.3467875
FJVLVYWRQCPAGB-UHFFFAOYSA-N,,COCCOCCOc1cc2ncnc(N/C(=N\Cc3cccnc3)Nc3c(C)cccc3C)c2cc1OC,Cc1cccc(c1N/C(=N/Cc2cccnc2)/Nc3c4cc(c(cc4ncn3)OCCOCCOC)OC)C,COCCOCCOC=1C=C2N=CN=C(C2=CC1OC)N/C(=N\CC=3C=CC=NC3)/NC=4C(=CC=CC4C)C,-5.49485
FJVRSGMAUUPXPQ-UHFFFAOYSA-N,,CN1CCC(COc2cc3ncnc(Nc4cnc(NC(=O)c5ccc(F)c(Cl)c5)nc4)c3cc2[N+](=O)[O-])CC1,CN1CCC(CC1)COc2cc3c(cc2[N+](=O)[O-])c(ncn3)Nc4cnc(nc4)NC(=O)c5ccc(c(c5)Cl)F,CN1CCC(CC1)COC=2C=C3N=CN=C(C3=CC2[N+](=O)[O-])NC=4C=NC(=NC4)NC(=O)C=5C=CC(=C(C5)Cl)F,-5.3372421999999995
FKAKGSJLTBVQOP-UHFFFAOYSA-N,2-[(acetyloxy)methyl]prop-2-en-1-yl acetate,C=C(COC(C)=O)COC(C)=O,CC(=O)OCC(=C)COC(=O)C,CC(=O)OCC(=C)COC(=O)C,-0.779608335
FKBMTBAXDISZGN-UHFFFAOYSA-N,"5-methyl-octahydro-2-benzofuran-1,3-dione",CC1CCC2C(=O)OC(=O)C2C1,CC1CCC2C(C1)C(=O)OC2=O,CC1CCC2C(C1)C(=O)OC2=O,-1.301526049
FKDJWBRMLYHSPW-UHFFFAOYSA-N,,Cc1noc(NS(=O)(=O)c2ccc(Nc3ncc(Cl)c(Nc4ccccc4C#N)n3)cc2)c1C,Cc1c(noc1NS(=O)(=O)c2ccc(cc2)Nc3ncc(c(n3)Nc4ccccc4C#N)Cl)C,CC1=NOC(=C1C)NS(=O)(=O)C=2C=CC(=CC2)NC=3N=CC(=C(N3)NC=4C=CC=CC4C#N)Cl,-4.60206
FKERUJTUOYLBKB-UHFFFAOYSA-N,Pyrazoxyfen,Cc1nn(C)c(OCC(=O)c2ccccc2)c1C(=O)c1ccc(Cl)cc1Cl,Cc1c(c(n(n1)C)OCC(=O)c2ccccc2)C(=O)c3ccc(cc3Cl)Cl,CN1N=C(C(=C1OCC(=O)C=2C=CC=CC2)C(=O)C=3C=CC(=CC3Cl)Cl)C,-2.6510000000000002
FKFZNMKGTYXBSJ-UHFFFAOYSA-N,,CC(C)Cn1c(=O)n(C)c(=O)c2c(Sc3ccccn3)c(Cc3cccc4ccccc34)sc21,CC(C)Cn1c2c(c(c(s2)Cc3cccc4c3cccc4)Sc5ccccn5)c(=O)n(c1=O)C,C=1C=CC=C2C1C(=CC=C2)CC3=C(C4=C(S3)N(C(=O)N(C4=O)C)CC(C)C)SC=5N=CC=CC5,-6.309705
FKHDHBCLRYXWJX-UHFFFAOYSA-N,,Cc1cc(NC(=O)Cc2ccccc2Cl)cc(C)c1S(=O)(=O)C[N+](=O)[O-],Cc1cc(cc(c1S(=O)(=O)C[N+](=O)[O-])C)NC(=O)Cc2ccccc2Cl,CC=1C=C(C=C(C1S(=O)(=O)C[N+](=O)[O-])C)NC(=O)CC=2C=CC=CC2Cl,-3.6989699999999996
FKIKPQHMWFZFEB-UHFFFAOYSA-N,,O=C(O)c1c(Cl)ccc(Cl)c1O,c1cc(c(c(c1Cl)C(=O)O)O)Cl,ClC1=CC=C(C(=C1O)C(=O)O)Cl,-0.3715
FKKUGJURZVYUBG-UHFFFAOYSA-N,1-(2-METHYLMORPHOLIN-4-YL)SULFONYL-3-(6-BICYCLO[2.2.1]-2-HEPTENYLMETHYL)UREA,CC1CN(S(=O)(=O)NC(=O)NCC2CC3C=CC2C3)CCO1,CC1CN(CCO1)S(=O)(=O)NC(=O)NCC2CC3CC2C=C3,CC1CN(CCO1)S(=O)(=O)NC(=O)NCC2CC3CC2C=C3,-2.26
FKLFBQCQQYDUAM-UHFFFAOYSA-N,"fenpiclonil;  3-cyano-4-(2,3-dichlorophenyl)pyrrole",N#Cc1c[nH]cc1-c1cccc(Cl)c1Cl,c1cc(c(c(c1)Cl)Cl)c2c[nH]cc2C#N,ClC=1C=CC=C(C1Cl)C2=CNC=C2C#N,-4.6937
FKLQIONHGSFYJY-UHFFFAOYSA-N,ISOPROPAZOL,CC(C)OC(=O)c1cc(-c2nn(C)c(C(F)(F)F)c2Br)c(F)cc1Cl,CC(C)OC(=O)c1cc(c(cc1Cl)F)c2c(c(n(n2)C)C(F)(F)F)Br,FC1=CC(=C(C=C1C2=NN(C(=C2Br)C(F)(F)F)C)C(=O)OC(C)C)Cl,-6.92285
FKNJURNHJJFOFH-UHFFFAOYSA-N,"Glycine, N-(dithiocarboxy)-, N-ester with mercap",O=C(O)CNC(=S)SCC(=O)O,C(C(=O)O)NC(=S)SCC(=O)O,OC(=O)CNC(=S)SCC(=O)O,-1.3
FKRSSPOQAMALKA-UHFFFAOYSA-N,daclatasvir dihydrochloride,COC(=O)N[C@H](C(=O)N1CCC[C@H]1c1ncc(-c2ccc(-c3ccc(-c4cnc([C@@H]5CCCN5C(=O)[C@@H](NC(=O)OC)C(C)C)[nH]4)cc3)cc2)[nH]1)C(C)C,CC(C)[C@@H](C(=O)N1CCC[C@H]1c2[nH]c(cn2)c3ccc(cc3)c4ccc(cc4)c5cnc([nH]5)[C@@H]6CCCN6C(=O)[C@H](C(C)C)NC(=O)OC)NC(=O)OC,CC(C)[C@@H](C(=O)N1CCC[C@H]1C2=NC=C(N2)C3=CC=C(C=C3)C4=CC=C(C=C4)C5=CN=C(N5)[C@@H]6CCCN6C(=O)[C@H](C(C)C)NC(=O)OC)NC(=O)OC,-0.064351007
FKSRSWQTEJTBMI-UHFFFAOYSA-N,"3,4-Diaminobenzenesulfonic acid",Nc1ccc(S(=O)(=O)O)cc1N,c1cc(c(cc1S(=O)(=O)O)N)N,NC=1C=CC(=CC1N)S(=O)(=O)O,-1.181108198
FKSXMHJQBJBWEP-UHFFFAOYSA-N,,O=C(Nc1ncc(Nc2ccnc3cc(OCCn4cncn4)ccc23)cn1)c1ccccc1,c1ccc(cc1)C(=O)Nc2ncc(cn2)Nc3ccnc4c3ccc(c4)OCCn5cncn5,O=C(NC=1N=CC(=CN1)NC=2C=CN=C3C2C=CC(=C3)OCCN4C=NC=N4)C=5C=CC=CC5,-3.7011469
FKUCYEDOPGXEJF-UHFFFAOYSA-N,,COc1cc2c(Nc3ccc(F)c(Cl)c3)ncnc2cc1NCCN1CCN(C)CC1,CN1CCN(CC1)CCNc2cc3c(cc2OC)c(ncn3)Nc4ccc(c(c4)Cl)F,COC=1C=C2C(=NC=NC2=CC1NCCN3CCN(CC3)C)NC=4C=CC(=C(C4)Cl)F,-4.39794
FKUPPRZPSYCDRS-UHFFFAOYSA-N,oxacyclohexadecan-2-one,O=C1CCCCCCCCCCCCCCO1,C1CCCCCCCOC(=O)CCCCCC1,O=C1CCCCCCCCCCCCCCO1,-5.621894862
FKXWDHYVCVMHBN-UHFFFAOYSA-N,,CC(O)CN(C)C(=O)Nc1ccc2c(c1)-c1ccccc1S2(=O)=O,CC(CN(C)C(=O)Nc1ccc2c(c1)-c3ccccc3S2(=O)=O)O,CC(O)CN(C)C(=O)NC=1C=CC2=C(C1)C=3C=CC=CC3S2(=O)=O,-3.7958800000000004
FKYMLLXKWDSLCS-UHFFFAOYSA-N,,COc1cc2c(Nc3cnc(NC(=O)c4ccccc4)nc3)ncnc2cc1OCCCNCC1CC1,COc1cc2c(cc1OCCCNCC3CC3)ncnc2Nc4cnc(nc4)NC(=O)c5ccccc5,COC=1C=C2C(=NC=NC2=CC1OCCCNCC3CC3)NC=4C=NC(=NC4)NC(=O)C=5C=CC=CC5,-2.7212464
FKZXYJYTUSGIQE-UHFFFAOYSA-N,4-Nitrobenzohydrazide,NNC(=O)c1ccc([N+](=O)[O-])cc1,c1cc(ccc1C(=O)NN)[N+](=O)[O-],C1=CC(=CC=C1C(=O)NN)[N+](=O)[O-],-2.1605
FLBHZSHHWPYRHG-UHFFFAOYSA-N,,CCCSc1nc(NC2CC2)c2nnn(C3CC(C(N)=O)C(O)C3O)c2n1,CCCSc1nc(c2c(n1)n(nn2)C3CC(C(C3O)O)C(=O)N)NC4CC4,C1(C(C(CC1C(=O)N)N2N=NC=3C2=NC(=NC3NC4CC4)SCCC)O)O,-3.1415933
FLBNHSJGJQDKOU-UHFFFAOYSA-N,,COc1cc2c(Nc3ccc(NC(=O)c4cccc(Cl)c4)cc3)ncnc2cc1OCCCN1CCOCC1,COc1cc2c(cc1OCCCN3CCOCC3)ncnc2Nc4ccc(cc4)NC(=O)c5cccc(c5)Cl,COC=1C=C2C(=NC=NC2=CC1OCCCN3CCOCC3)NC=4C=CC(=CC4)NC(=O)C=5C=CC=C(C5)Cl,-7.0
FLDULGZAEKFCIK-UHFFFAOYSA-N,3-Mentanol,CC1CCCC(O)(C(C)C)C1,CC1CCCC(C1)(C(C)C)O,CC1CCCC(C1)(O)C(C)C,-0.24
FLFDXEIYQULZBW-UHFFFAOYSA-N,,COc1cc2ncnc(Nc3ccc(F)c(Cl)c3)c2cc1CCCN1CCOCC1,COc1cc2c(cc1CCCN3CCOCC3)c(ncn2)Nc4ccc(c(c4)Cl)F,COC=1C=C2N=CN=C(C2=CC1CCCN3CCOCC3)NC=4C=CC(=C(C4)Cl)F,-5.387216099999999
FLFHOVITVVJWGP-UHFFFAOYSA-N,"1,2-Cyclohexanedione, 4-tert-pentyl-, dioxime",CCC(C)(C)C1CCC(N=O)C(N=O)C1,CCC(C)(C)C1CCC(C(C1)N=O)N=O,N(=O)C1CCC(CC1N=O)C(CC)(C)C,-3.965
FLFWJIBUZQARMD-UHFFFAOYSA-N,2(3H)-Benzoxazolethione,Sc1nc2ccccc2o1,c1ccc2c(c1)nc(o2)S,S=C1NC=2C=CC=CC2O1,-2.17925
FLGCIFCXVAFWLT-UHFFFAOYSA-N,,NC(=O)Nc1sc(-c2cccnc2)cc1C(N)=O,c1cc(cnc1)c2cc(c(s2)NC(=O)N)C(=O)N,NC(=O)NC=1SC(=CC1C(=O)N)C=2C=CC=NC2,-5.0087739000000004
FLIACVVOZYBSBS-UHFFFAOYSA-N,methyl palmitate,CCCCCCCCCCCCCCCC(=O)OC,CCCCCCCCCCCCCCCC(=O)OC,CCCCCCCCCCCCCCCC(=O)OC,-7.83
FLIOATBXVNLPLK-UHFFFAOYSA-N,"disodium 4-nitrobenzene-1,3-diamine 3-amino-4-methoxybenzene-1-sulfonate 3-hydroxybenzen-1-olate copper",COc1ccc(S(=O)(=O)O)cc1N,COc1ccc(cc1N)S(=O)(=O)O,S(=O)(=O)(C=1C=C(C(=CC1)OC)N)O,-1.2018621729999999
FLISWPFVWWWNNP-UHFFFAOYSA-N,"3-[(2E)-oct-2-en-1-yl]oxolane-2,5-dione; 3-[(2Z)-oct-2-en-1-yl]oxolane-2,5-dione",CCCCCC/C=C/C1CC(=O)OC1=O,CCCCCC/C=C/C1CC(=O)OC1=O,CCCCCC/C=C/C1CC(=O)OC1=O,-4.021876758
FLJQERBDKWFELA-UHFFFAOYSA-N,5-ethyl-5-heptylbarbituric  acid,CCCCCCCC1(CC)C(=O)NC(=O)NC1=O,CCCCCCCC1(C(=O)NC(=O)NC1=O)CC,N1C(=O)C(C(=O)NC1=O)(CC)CCCCCCC,-3.179
FLKHVLRENDBIDB-UHFFFAOYSA-N,2-[(butylcarbamoyl)oxy]ethyl prop-2-enoate,C=CC(=O)OCCOC(=O)NCCCC,CCCCNC(=O)OCCOC(=O)C=C,CCCCNC(=O)OCCOC(=O)C=C,-1.634920299
FLKPEMZONWLCSK-UHFFFAOYSA-N,diethyl_phthalate,CCOC(=O)c1ccccc1C(=O)OCC,CCOC(=O)c1ccccc1C(=O)OCC,O=C(OCC)C1=CC=CC=C1C(=O)OCC,-2.35
FLLVVAHFEBGZKD-UHFFFAOYSA-N,"Acetamide, N-(4-chlorophenyl)-2-cyano-",N#CCC(=O)Nc1ccc(Cl)cc1,c1cc(ccc1NC(=O)CC#N)Cl,N#CCC(=O)NC=1C=CC(=CC1)Cl,-3.2889999999999997
FLMFUGCILGIYEN-UHFFFAOYSA-N,,Fc1ccc(Nc2ncnc3cc(OCCCN4CCOCC4)c(OCCCN4CCOCC4)cc23)cc1Cl,c1cc(c(cc1Nc2c3cc(c(cc3ncn2)OCCCN4CCOCC4)OCCCN5CCOCC5)Cl)F,FC=1C=CC(=CC1Cl)NC=2N=CN=C3C2C=C(C(=C3)OCCCN4CCOCC4)OCCCN5CCOCC5,-4.552842
FLNHUBDFYWZFMU-UHFFFAOYSA-N,"2,2',5,5'-Tetrachlorobenzyl 4-toluene",Cc1cc(Cl)c(Cc2cc(Cl)ccc2Cl)cc1Cl,Cc1cc(c(cc1Cl)Cc2cc(ccc2Cl)Cl)Cl,CC1=C(C=C(C(=C1)Cl)CC2=CC(=CC=C2Cl)Cl)Cl,-8.03
FLOSMHQXBMRNHR-UHFFFAOYSA-N,Methazolamide,CC(=O)/N=c1\sc(S(N)(=O)=O)nn1C,CC(=O)/N=c\1/n(nc(s1)S(=O)(=O)N)C,CN\1N=C(S/C1=N\C(=O)C)S(=O)(=O)N,-1.83
FLPHVXHNKUPMTF-UHFFFAOYSA-N,5-nitro-2-prop-2-enoxyaniline,C=CCOc1ccc([N+](=O)[O-])cc1N,C=CCOc1ccc(cc1N)[N+](=O)[O-],C=CCOC1=C(C=C(C=C1)[N+](=O)[O-])N,-2.799
FLPKSBDJMLUTEX-UHFFFAOYSA-N,"bis(1,2,2,6,6-pentamethylpiperidin-4-yl) 2-butyl-2-[(3,5-di-tert-butyl-4-hydroxyphenyl)methyl]propanedioate",CCCCC(Cc1cc(C(C)(C)C)c(O)c(C(C)(C)C)c1)(C(=O)OC1CC(C)(C)N(C)C(C)(C)C1)C(=O)OC1CC(C)(C)N(C)C(C)(C)C1,CCCCC(Cc1cc(c(c(c1)C(C)(C)C)O)C(C)(C)C)(C(=O)OC2CC(N(C(C2)(C)C)C)(C)C)C(=O)OC3CC(N(C(C3)(C)C)C)(C)C,CCCCC(CC=1C=C(C(=C(C1)C(C)(C)C)O)C(C)(C)C)(C(=O)OC2CC(N(C(C2)(C)C)C)(C)C)C(=O)OC3CC(N(C(C3)(C)C)C)(C)C,-5.835720369
FLQAKWZCYOWCLX-UHFFFAOYSA-N,,CSCCC(NC(=O)c1ccc(/C=C/Cn2ccnc2)cc1-c1cccnc1)C(=O)OC(C)(C)C,CC(C)(C)OC(=O)C(CCSC)NC(=O)c1ccc(cc1c2cccnc2)/C=C/Cn3ccnc3,CSCCC(NC(=O)C=1C=CC(=CC1C=2C=CC=NC2)/C=C/CN3C=CN=C3)C(=O)OC(C)(C)C,-3.8416375
FLQNLTKDGOVVFH-UHFFFAOYSA-N,,CNC(=O)C(NC(=O)C(CC(C)C)C1NC(CN2C(=O)c3ccccc3C2=O)N(O)C1=O)C(C)(C)C,CC(C)CC(C1C(=O)N(C(N1)CN2C(=O)c3ccccc3C2=O)O)C(=O)NC(C(=O)NC)C(C)(C)C,CNC(=O)C(NC(=O)C(CC(C)C)C1NC(N(C1=O)O)CN2C(=O)C=3C=CC=CC3C2=O)C(C)(C)C,-4.0705811
FLTYACUMGDVPLP-UHFFFAOYSA-N,FENAMINOSULF,CN(C)c1ccc(/N=N/S(=O)(=O)O)cc1,CN(C)c1ccc(cc1)/N=N/S(=O)(=O)O,S(=O)(=O)(/N=N/C1=CC=C(C=C1)N(C)C)O,-1.099
FLUWAIIVLCVEKF-UHFFFAOYSA-N,2-methyl-1-phenylpropan-2-yl acetate,CC(=O)OC(C)(C)Cc1ccccc1,CC(=O)OC(C)(C)Cc1ccccc1,CC(=O)OC(C)(C)CC=1C=CC=CC1,-2.394824985
FLVLUDPFVUXEFV-UHFFFAOYSA-N,morpholin-4-ylcarbonylmethyl  acetylsalicylate; n-[2-(2-acetoxybenzoyloxy)acetyl]morpholine,CC(=O)Oc1ccccc1C(=O)OCC(=O)N1CCOCC1,CC(=O)Oc1ccccc1C(=O)OCC(=O)N2CCOCC2,CC(=O)OC1=CC=CC=C1C(=O)OCC(=O)N2CCOCC2,-1.8019999999999998
FLXFRLJBZQKANH-UHFFFAOYSA-N,,COc1cc2c(Nc3ccc(Oc4ccccc4OC)cc3)c(C#N)cnc2cc1OCC(O)CN1CCCC1,COc1ccccc1Oc2ccc(cc2)Nc3c4cc(c(cc4ncc3C#N)OCC(CN5CCCC5)O)OC,COC=1C=CC=CC1OC=2C=CC(=CC2)NC=3C(=CN=C4C3C=C(C(=C4)OCC(O)CN5CCCC5)OC)C#N,-4.3767507000000005
FLXNNWWFGVHTDN-UHFFFAOYSA-N,"3-(4,5-dihydro-1~{H}-imidazol-2-yl)naphthalen-2-ol",Oc1cc2ccccc2cc1C1=NCCN1,c1ccc2cc(c(cc2c1)C3=NCCN3)O,OC=1C=C2C=CC=CC2=CC1C3=NCCN3,-3.3015
FLYWDADPUYSEFG-UHFFFAOYSA-N,,CN(C)CCOc1ccc(Nc2ncc(Br)c(Nc3ccccc3)n2)cc1,CN(C)CCOc1ccc(cc1)Nc2ncc(c(n2)Nc3ccccc3)Br,CN(C)CCOC=1C=CC(=CC1)NC=2N=CC(=C(N2)NC=3C=CC=CC3)Br,-4.366531500000001
FMDFRYBCRRBZGD-UHFFFAOYSA-N,,CC(O)(C(=O)Nc1ccc(S(=O)(=O)N2CCC(O)CC2)c(Cl)c1Cl)C(F)(F)F,CC(C(=O)Nc1ccc(c(c1Cl)Cl)S(=O)(=O)N2CCC(CC2)O)(C(F)(F)F)O,CC(O)(C(=O)NC=1C=CC(=C(C1Cl)Cl)S(=O)(=O)N2CCC(CC2)O)C(F)(F)F,-3.8239087
FMEQISYFQLXUBA-UHFFFAOYSA-N,,Cc1ncc(-c2ccnc(Nc3ccc(S(=O)(=O)NCC#N)cc3)n2)n1C(C)C,Cc1ncc(n1C(C)C)c2ccnc(n2)Nc3ccc(cc3)S(=O)(=O)NCC#N,CC(C)N1C(=NC=C1C=2C=CN=C(N2)NC=3C=CC(=CC3)S(=O)(=O)NCC#N)C,-5.0343279999999995
FMGSKLZLMKYGDP-UHFFFAOYSA-N,Prasterone,C[C@]12CC[C@H]3[C@@H](CC=C4C[C@@H](O)CC[C@@]43C)[C@@H]1CCC2=O,C[C@]12CC[C@H]3[C@H]([C@@H]1CCC2=O)CC=C4[C@@]3(CC[C@@H](C4)O)C,O=C1[C@@]2([C@H]([C@H]3[C@@H]([C@@]4(C(=CC3)C[C@H](CC4)O)C)CC2)CC1)C,-4.061765
FMGZEUWROYGLAY-UHFFFAOYSA-N,Halosulfuron-methyl,COC(=O)c1c(Cl)nn(C)c1S(=O)(=O)NC(=O)Nc1nc(OC)cc(OC)n1,Cn1c(c(c(n1)Cl)C(=O)OC)S(=O)(=O)NC(=O)Nc2nc(cc(n2)OC)OC,O=S(=O)(C1=C(C(=NN1C)Cl)C(=O)OC)NC(=O)NC2=NC(=CC(=N2)OC)OC,-4.5471
FMHHVULEAZTJMA-UHFFFAOYSA-N,"2,5,9-trimethylpyrano[5,6-f][1]benzoxol-7-one",Cc1cc2cc3c(C)cc(=O)oc3c(C)c2o1,Cc1cc(=O)oc2c1cc3cc(oc3c2C)C,CC1=CC2=CC3=C(OC(=O)C=C3C)C(=C2O1)C,-5.2775
FMINYZXVCTYSNY-UHFFFAOYSA-N,Methyldymron,CN(C(=O)NC(C)(C)c1ccccc1)c1ccccc1,CC(C)(c1ccccc1)NC(=O)N(C)c2ccccc2,O=C(N(C)C=1C=CC=CC1)NC(C)(C)C=2C=CC=CC2,-3.35
FMIVOPRNBGRDKP-UHFFFAOYSA-N,copper(2+) ion 1-[N-(2-oxidophenyl)carboximidoyl]naphthalen-2-olate,Oc1ccccc1/N=C/c1c(O)ccc2ccccc12,c1ccc2c(c1)ccc(c2/C=N/c3ccccc3O)O,OC=1C=CC=CC1/N=C/C=2C(=CC=C3C2C=CC=C3)O,-7.432234769
FMJSMJQBSVNSBF-UHFFFAOYSA-N,"2-ethylhexyl 2-cyano-3,3-diphenylprop-2-enoate",CCCCC(CC)COC(=O)C(C#N)=C(c1ccccc1)c1ccccc1,CCCCC(CC)COC(=O)C(=C(c1ccccc1)c2ccccc2)C#N,CCCCC(CC)COC(=O)C(=C(C=1C=CC=CC1)C=2C=CC=CC2)C#N,-6.558045141
FMKMKBLHMONXJM-UHFFFAOYSA-N,5-methyl-2-phenylpyrazol-3-amine,Cc1cc(N)n(-c2ccccc2)n1,Cc1cc(n(n1)c2ccccc2)N,NC=1N(N=C(C1)C)C=2C=CC=CC2,-0.938
FMLZTMKJPWAJPT-UHFFFAOYSA-N,,O=CN(O)C(CS(=O)(=O)N1CCN(c2ccc(F)cc2)CC1)c1cccc(C(F)(F)F)c1,c1cc(cc(c1)C(F)(F)F)C(CS(=O)(=O)N2CCN(CC2)c3ccc(cc3)F)N(C=O)O,ON(C=O)C(CS(=O)(=O)N1CCN(CC1)C=2C=CC(=CC2)F)C=3C=CC=C(C3)C(F)(F)F,-5.5100415
FMMSHBOKYHQUHW-UHFFFAOYSA-N,,N#Cc1ccccc1COc1cc(OCc2cccc(Cl)c2)cc(C(=O)Nc2ccc(C(=O)O)cn2)c1,c1ccc(c(c1)COc2cc(cc(c2)OCc3cccc(c3)Cl)C(=O)Nc4ccc(cn4)C(=O)O)C#N,OC(=O)C=1C=CC(=NC1)NC(=O)C=2C=C(C=C(C2)OCC=3C=CC=CC3C#N)OCC=4C=CC=C(C4)Cl,-5.6575773
FMMWHPNWAFZXNH-UHFFFAOYSA-N,Benzo[a]pyrene,c1ccc2c(c1)cc1ccc3cccc4ccc2c1c34,c1ccc2c(c1)cc3ccc4cccc5c4c3c2cc5,C=1C=CC=2C(C1)=CC=3C=CC=4C=CC=C5C4C3C2C=C5,-8.191
FMNNWKZSZILCDL-UHFFFAOYSA-N,,Cc1ccc(F)c(Nc2ccnc(Nc3ccc(OCC(O)CNC4CCCC4)cc3)n2)c1,Cc1ccc(c(c1)Nc2ccnc(n2)Nc3ccc(cc3)OCC(CNC4CCCC4)O)F,CC=1C=CC(=C(C1)NC=2C=CN=C(N2)NC=3C=CC(=CC3)OCC(O)CNC4CCCC4)F,-4.552842
FMOSFGQXYVSTOC-UHFFFAOYSA-N,,CN(C)CCCOc1ccc(NC(=O)Cc2ccc3nc(Nc4ccccc4)oc3c2)cc1OCCCC(=O)O,CN(C)CCCOc1ccc(cc1OCCCC(=O)O)NC(=O)Cc2ccc3c(c2)oc(n3)Nc4ccccc4,CN(C)CCCOC=1C=CC(=CC1OCCCC(=O)O)NC(=O)CC=2C=CC=3N=C(OC3C2)NC=4C=CC=CC4,-3.4202163999999997
FMPPNFXDPZIBER-UHFFFAOYSA-N,,CCN(CC)c1ccc(NC(=O)CCc2ccncc2)cc1,CCN(CC)c1ccc(cc1)NC(=O)CCc2ccncc2,CCN(CC)C=1C=CC(=CC1)NC(=O)CCC=2C=CN=CC2,-4.8860566
FMPUSJAPIITOEY-UHFFFAOYSA-N,"Phthalic acid, 3-nitro-, 2-butyl ester",CCC(C)OC(=O)c1cccc([N+](=O)[O-])c1C(=O)O,CCC(C)OC(=O)c1cccc(c1C(=O)O)[N+](=O)[O-],CCC(C)OC(=O)C=1C=CC=C(C1C(=O)O)[N+](=O)[O-],-2.71915
FMRHJJZUHUTGKE-UHFFFAOYSA-N,Ethyl hexyl salicylate,CCCCC(CC)COC(=O)c1ccccc1O,CCCCC(CC)COC(=O)c1ccccc1O,O=C(OCC(CCCC)CC)C1=C(C=CC=C1)O,-5.7
FMSIHPQFJSZQTA-UHFFFAOYSA-N,ACETAMINOPHEN  OCTANOATE;  4-(OCTANOYLOXY)ACETANILIDE,CCCCCCCC(=O)Oc1ccc(NC(C)=O)cc1,CCCCCCCC(=O)Oc1ccc(cc1)NC(=O)C,CCCCCCCC(=O)OC1=CC=C(C=C1)NC(=O)C,-4.44
FMSPURDFSKAVBR-UHFFFAOYSA-N,,Cc1ccc(C)c(CNc2ccc3cc(C(=O)NS(=O)(=O)c4c(C)noc4C)sc3c2)c1,Cc1ccc(c(c1)CNc2ccc3cc(sc3c2)C(=O)NS(=O)(=O)c4c(noc4C)C)C,CC1=NOC(=C1S(=O)(=O)NC(=O)C2=CC=3C=CC(=CC3S2)NCC=4C=C(C=CC4C)C)C,-3.9586072999999997
FMTDIUIBLCQGJB-UHFFFAOYSA-N,Demeclocycline,CN(C)C1C(O)=C(C(N)=O)C(=O)C2(O)C(O)=C3C(=O)c4c(O)ccc(Cl)c4C(O)C3CC12,CN(C)C1C2CC3C(c4c(ccc(c4C(=O)C3=C(C2(C(=O)C(=C1O)C(=O)N)O)O)O)Cl)O,O=C1C2=C(C=CC(=C2C(C3C1=C(C4(C(=O)C(=C(C(C4C3)N(C)C)O)C(=O)N)O)O)O)Cl)O,-2.52
FMTLDVACNZDTQL-UHFFFAOYSA-N,5-ethylbarbituric acid,CCC1C(=O)NC(=O)NC1=O,CCC1C(=O)NC(=O)NC1=O,N1C(=O)C(C(=O)NC1=O)CC,-1.1735
FMWIRRLVRFTOTE-UHFFFAOYSA-N,,COC1(c2cnc(Sc3ccc4c(c3)CCC(=O)N4C)s2)CCOC(C)C1,CC1CC(CCO1)(c2cnc(s2)Sc3ccc4c(c3)CCC(=O)N4C)OC,COC1(CCOC(C1)C)C2=CN=C(S2)SC=3C=CC4=C(C3)CCC(=O)N4C,-3.7011469
FMXDVBRYDYFVGS-UHFFFAOYSA-N,"2,4,6-TRINITROANISOLE",COc1c([N+](=O)[O-])cc([N+](=O)[O-])cc1[N+](=O)[O-],COc1c(cc(cc1[N+](=O)[O-])[N+](=O)[O-])[N+](=O)[O-],COC=1C(=CC(=CC1[N+](=O)[O-])[N+](=O)[O-])[N+](=O)[O-],-3.085
FMXONIDRXZARPG-UHFFFAOYSA-O,,Cc1nc2ccccc2[n+]2nn(-c3ccc(OC(F)(F)F)cc3)c(O)c12,Cc1c2c(n(n[n+]2c3ccccc3n1)c4ccc(cc4)OC(F)(F)F)O,FC(F)(F)OC=1C=CC(=CC1)N2N=[N+]3C(=C2O)C(=NC4=C3C=CC=C4)C,-5.706625
FMXWPTBQTITILA-UHFFFAOYSA-N,"Alanine, N-(aminocarbonyl)-2-methyl-",CC(C)(NC(N)=O)C(=O)O,CC(C)(C(=O)O)NC(=O)N,CC(C)(NC(=O)N)C(=O)O,-1.1649
FMXZVSIMKJRXKL-UHFFFAOYSA-N,,COc1cc(Cl)cc2c1NC(=O)CS2,COc1cc(cc2c1NC(=O)CS2)Cl,COC=1C=C(C=C2C1NC(=O)CS2)Cl,-4.5686362
FMYCPRQGKSONCP-UHFFFAOYSA-N,[2-(1-propoxyethoxy)ethyl]benzene,CCCOC(C)OCCc1ccccc1,CCCOC(C)OCCc1ccccc1,CCCOC(C)OCCC=1C=CC=CC1,-3.384096452
FMYKJLXRRQTBOR-UHFFFAOYSA-N,,CCCCC(C=O)NC(=O)C(CC(C)C)NC(=O)C(CC(C)C)NC(C)=O,CCCCC(C=O)NC(=O)C(CC(C)C)NC(=O)C(CC(C)C)NC(=O)C,CCCCC(NC(=O)C(CC(C)C)NC(=O)C(CC(C)C)NC(=O)C)C=O,-2.853872
FMZOZWDDEWRROG-UHFFFAOYSA-N,,NCC(O)COc1ccc(Nc2ncc(Br)c(Nc3ccccc3)n2)cc1,c1ccc(cc1)Nc2c(cnc(n2)Nc3ccc(cc3)OCC(CN)O)Br,NCC(O)COC=1C=CC(=CC1)NC=2N=CC(=C(N2)NC=3C=CC=CC3)Br,-4.5086383
FMZVAQGPUASACA-UHFFFAOYSA-N,1-(4-methoxyphenyl)-1-methylurea,COc1ccc(N(C)C(N)=O)cc1,CN(c1ccc(cc1)OC)C(=O)N,COC1=CC=C(C=C1)N(C)C(=O)N,-1.1605
FNAAOMSRAVKQGQ-UHFFFAOYSA-N,,CNC(=O)Oc1ccc(C)c(C)c1Cl,Cc1ccc(c(c1C)Cl)OC(=O)NC,C1(=C(C(=C(C=C1)C)C)Cl)OC(=O)NC,-3.0239999999999996
FNDHNBZREMFSRK-UHFFFAOYSA-N,,NC(=O)Nc1sc(-c2ccc(N3CCCCC3)nc2)cc1C(N)=O,c1cc(ncc1c2cc(c(s2)NC(=O)N)C(=O)N)N3CCCCC3,NC(=O)NC=1SC(=CC1C(=O)N)C=2C=CC(=NC2)N3CCCCC3,-5.455932
FNDNCMRAZJYXTK-UHFFFAOYSA-N,,COc1cc2ncnc(Nc3ccc(F)c(Cl)c3)c2cc1OCCCNC1COCC1O,COc1cc2c(cc1OCCCNC3COCC3O)c(ncn2)Nc4ccc(c(c4)Cl)F,COC=1C=C2N=CN=C(C2=CC1OCCCNC3COCC3O)NC=4C=CC(=C(C4)Cl)F,-4.920818799999999
FNEJJUKMTUNAMN-UHFFFAOYSA-N,Methyl N-[2-({[(2-methyl-2-propanyl)oxy]carbonyl}amino)-4-pentynoyl]glycinate,C#CCC(NC(=O)OC(C)(C)C)C(=O)NCC(=O)OC,CC(C)(C)OC(=O)NC(CC#C)C(=O)NCC(=O)OC,C(OC(=O)NC(C(=O)NCC(=O)OC)CC#C)(C)(C)C,-1.452
FNEQMMDPQMYVSK-UHFFFAOYSA-N,,Cc1ccccc1NC(=O)Nc1ccc(NC(=O)OCCc2ccccc2OCC(=O)O)cc1,Cc1ccccc1NC(=O)Nc2ccc(cc2)NC(=O)OCCc3ccccc3OCC(=O)O,CC=1C=CC=CC1NC(=O)NC=2C=CC(=CC2)NC(=O)OCCC=3C=CC=CC3OCC(=O)O,-3.6989699999999996
FNFPHNZQOKBKHN-UHFFFAOYSA-N,Molecule1348,CC(C)(C)CC(=O)OCC(=O)C1(O)CCC2C3CCC4=CC(=O)CCC4(C)C3C(O)CC21C,CC12CCC(=O)C=C1CCC3C2C(CC4(C3CCC4(C(=O)COC(=O)CC(C)(C)C)O)C)O,OC1(CCC2C1(CC(C3C2CCC4=CC(=O)CCC34C)O)C)C(=O)COC(=O)CC(C)(C)C,-5.51
FNGCDYGMUASVBE-UHFFFAOYSA-N,,CCc1cccc(C)c1CNc1cc(C(=O)NCCC2CCCN2C)cn2c(C)c(C)nc12,CCc1cccc(c1CNc2cc(cn3c2nc(c3C)C)C(=O)NCCC4CCCN4C)C,CCC=1C=CC=C(C1CNC2=CC(=CN3C2=NC(=C3C)C)C(=O)NCCC4CCCN4C)C,-3.3467875
FNGGWMOUUCYPCH-UHFFFAOYSA-N,"1-[(1E,5Z,9Z)-2,5,10-trimethylcyclododeca-1,5,9-trien-1-yl]ethan-1-one; 1-[(1R)-2,5,10-trimethylcyclododeca-2,5,9-trien-1-yl]ethan-1-one; 1-[(1R)-4,9-dimethyl-12-methylidenecyclododeca-4,8-dien-1-yl]ethan-1-one; 1-[(1S)-2,5,10-trimethylcyclododeca-2,5,9-trien-1-yl]ethan-1-one; 1-[(1S)-4,9-dimethyl-12-methylidenecyclododeca-4,8-dien-1-yl]ethan-1-one",C=C1CC/C(C)=C\CC/C=C(/C)CC[C@@H]1C(C)=O,C/C/1=C/CC/C=C(\CCC(=C)[C@H](CC1)C(=O)C)/C,CC(=O)[C@H]1CC/C(=C\CC/C=C(\CCC1=C)/C)/C,-5.449063011000001
FNGNLZLLBCYMOG-UHFFFAOYSA-N,"L-Tyrosine, N-acetyl-3,5-dibromo-",CC(=O)N[C@@H](Cc1cc(Br)c(O)c(Br)c1)C(=O)O,CC(=O)N[C@@H](Cc1cc(c(c(c1)Br)O)Br)C(=O)O,CC(=O)N[C@@H](CC=1C=C(C(=C(C1)Br)O)Br)C(=O)O,-2.1830000000000003
FNGZREDJXWXRBW-UHFFFAOYSA-N,"Guanidine, 2-benzoxazolyl-",N=C(N)Nc1nc2ccccc2o1,c1ccc2c(c1)nc(o2)NC(=N)N,N=C(N)NC=1OC2=C(N1)C=CC=C2,-2.765
FNKFQKVZGCJOOK-UHFFFAOYSA-N,,CCn1c2ccccc2c2cc(NC(=O)NCCCN3CCOCC3)ccc21,CCn1c2ccccc2c3c1ccc(c3)NC(=O)NCCCN4CCOCC4,CCN1C=2C=CC=CC2C3=C1C=CC(=C3)NC(=O)NCCCN4CCOCC4,-4.6197888
FNKQXYHWGSIFBK-UHFFFAOYSA-N,sapropterin dihydrochloride,C[C@H](O)[C@H](O)[C@H]1CNc2nc(N)[nH]c(=O)c2N1,C[C@@H]([C@@H]([C@H]1CNc2c(c(=O)[nH]c(n2)N)N1)O)O,C[C@@H]([C@@H]([C@H]1CNC2=C(C(=O)NC(=N2)N)N1)O)O,-2.196134716
FNNNSLQQKQFISL-UHFFFAOYSA-N,,COCCCNS(=O)(=O)c1ccc(Nc2ncc(Br)c(NCCN(C)C)n2)cc1,CN(C)CCNc1c(cnc(n1)Nc2ccc(cc2)S(=O)(=O)NCCCOC)Br,COCCCNS(=O)(=O)C=1C=CC(=CC1)NC=2N=CC(=C(N2)NCCN(C)C)Br,-3.60206
FNPKCCFREWXJQQ-UHFFFAOYSA-N,,COc1cc2ncnc(Nc3cccc(Cl)c3F)c2cc1OCCCO,COc1cc2c(cc1OCCCO)c(ncn2)Nc3cccc(c3F)Cl,COC=1C=C2N=CN=C(C2=CC1OCCCO)NC=3C=CC=C(C3F)Cl,-5.2757241