inchikey,Name,SMILES_stand,SMILES,kekSmiles,logS
IFFKQMUKZZTUNZ-UHFFFAOYSA-N,,CCN(CC)C(=O)C1(c2cc3c(CCN/C(=N\C#N)NCCc4ccncc4)c(-c4cc(C)cc(C)c4)[nH]c3cc2Cl)CC1,CCN(CC)C(=O)C1(CC1)c2cc3c(cc2Cl)[nH]c(c3CCN/C(=N\C#N)/NCCc4ccncc4)c5cc(cc(c5)C)C,CCN(CC)C(=O)C1(CC1)C=2C=C3C(=C(NC3=CC2Cl)C=4C=C(C=C(C4)C)C)CCN/C(=N\C#N)/NCCC=5C=CN=CC5,-6.568636200000001
IFFPICMESYHZPQ-UHFFFAOYSA-N,Prenylamine,CC(Cc1ccccc1)NCCC(c1ccccc1)c1ccccc1,CC(Cc1ccccc1)NCCC(c2ccccc2)c3ccccc3,C1=CC=CC=C1C(C2=CC=CC=C2)CCNC(C)CC3=CC=CC=C3,-3.82
IFFRAWSBRYASEG-UHFFFAOYSA-N,,Cc1cc(N)c2cc(NC(=O)/C=C/C(=O)NCc3cccnc3)ccc2n1,Cc1cc(c2cc(ccc2n1)NC(=O)/C=C/C(=O)NCc3cccnc3)N,CC=1C=C(C=2C=C(C=CC2N1)NC(=O)/C=C/C(=O)NCC=3C=CC=NC3)N,-3.7695510999999997
IFGDRUTWCITGHG-UHFFFAOYSA-N,"3-[(4-hydroxy-3-methoxyphenyl)methyl]pentane-2,4-dione",COc1cc(CC(C(C)=O)C(C)=O)ccc1O,CC(=O)C(Cc1ccc(c(c1)OC)O)C(=O)C,COC=1C=C(C=CC1O)CC(C(=O)C)C(=O)C,-1.786182975
IFHSSGUGRIXWQU-UHFFFAOYSA-N,"L-365,209 ;  (CYCLIC  HEXAPEPTIDE)",CCC(C)C1NC(=O)C(Cc2ccccc2)NC(=O)C2CCCN2C(=O)C(Cc2ccccc2)N(C)C(=O)C2CCC=NN2C(=O)C2CCC=NN2C1=O,CCC(C)C1C(=O)N2C(CCC=N2)C(=O)N3C(CCC=N3)C(=O)N(C(C(=O)N4CCCC4C(=O)NC(C(=O)N1)Cc5ccccc5)Cc6ccccc6)C,CCC(C)C1NC(=O)C(NC(=O)C2CCCN2C(=O)C(N(C(=O)C3CCC=NN3C(=O)C4CCC=NN4C1=O)C)CC5=CC=CC=C5)CC6=CC=CC=C6,-4.04
IFIRBZOPPUFQRQ-UHFFFAOYSA-N,,COc1cc2ncnc(Nc3ccc(F)c(Cl)c3)c2cc1OCCCN1CCCCC1,COc1cc2c(cc1OCCCN3CCCCC3)c(ncn2)Nc4ccc(c(c4)Cl)F,COC=1C=C2N=CN=C(C2=CC1OCCCN3CCCCC3)NC=4C=CC(=C(C4)Cl)F,-4.69897
IFKLAQQSCNILHL-UHFFFAOYSA-N,butorphanol,Oc1ccc2c(c1)[C@@]13CCCC[C@@]1(O)[C@@H](C2)N(CC1CCC1)CC3,c1cc2c(cc1O)[C@@]34CCCC[C@]3([C@@H](C2)N(CC4)CC5CCC5)O,C1CC[C@]2([C@H]3CC4=C(C=C(C=C4)O)[C@]2(C1)CCN3CC5CCC5)O,-2.214128262
IFLREYGFSNHWGE-UHFFFAOYSA-N,tetracene,c1ccc2cc3cc4ccccc4cc3cc2c1,c1ccc2cc3cc4ccccc4cc3cc2c1,C=1C=CC=2C=C3C=C4C=CC=CC4=CC3=CC2C1,-8.6
IFMMYZUUCFPEHR-UHFFFAOYSA-N,,Oc1cc2ncnc(Nc3ccc(F)c(Cl)c3)c2cc1OCCCN1CCOCC1,c1cc(c(cc1Nc2c3cc(c(cc3ncn2)O)OCCCN4CCOCC4)Cl)F,OC=1C=C2N=CN=C(C2=CC1OCCCN3CCOCC3)NC=4C=CC(=C(C4)Cl)F,-6.055517299999999
IFQULAPKPYIHBS-UHFFFAOYSA-N,"1-Phenyldecane-1,3-dione",CCCCCCCC(=O)CC(=O)c1ccccc1,CCCCCCCC(=O)CC(=O)c1ccccc1,CCCCCCCC(=O)CC(=O)C=1C=CC=CC1,-5.883848348
IFQZADDJTDGGCP-UHFFFAOYSA-N,"(1S,2S)-1-methyl-4-(propan-2-yl)-7-oxabicyclo[2.2.1]heptan-2-ol",CC(C)[C@@]12CC[C@@](C)(O1)[C@@H](O)C2,CC(C)[C@@]12CC[C@@](O1)([C@H](C2)O)C,CC(C)[C@@]12CC[C@@](O1)([C@H](C2)O)C,-0.288096315
IFRQGHZXTVYWRM-UHFFFAOYSA-N,,O=C(NNC(=O)c1c(Cl)cccc1Cl)c1ccc(Cl)c(Cl)c1,c1cc(c(c(c1)Cl)C(=O)NNC(=O)c2ccc(c(c2)Cl)Cl)Cl,ClC=1C=CC(=CC1Cl)C(=O)NNC(=O)C=2C(=CC=CC2Cl)Cl,-5.5497509
IFTILOXXCKROMA-UHFFFAOYSA-N,,COc1cc2c(Oc3cnc4[nH]ccc4c3)ncnc2cc1OCCCN1CCCC1,COc1cc2c(cc1OCCCN3CCCC3)ncnc2Oc4cc5cc[nH]c5nc4,COC=1C=C2C(=NC=NC2=CC1OCCCN3CCCC3)OC=4C=NC=5NC=CC5C4,-3.6575773000000003
IFVMSBVUPNIXRH-UHFFFAOYSA-N,,COc1cc2c(Nc3ccc(F)c(Cl)c3)ncnc2cc1NC(=O)CCN1CCCC1,COc1cc2c(cc1NC(=O)CCN3CCCC3)ncnc2Nc4ccc(c(c4)Cl)F,COC=1C=C2C(=NC=NC2=CC1NC(=O)CCN3CCCC3)NC=4C=CC(=C(C4)Cl)F,-5.167820099999999
IFXDUNDBQDXPQZ-UHFFFAOYSA-N,"1,1-dimethylpropyl 2-(ethylperoxy)hexanoate",CCCCC(CC)C(=O)OOC(C)(C)CC,CCCCC(CC)C(=O)OOC(C)(C)CC,CCCCC(CC)C(=O)OOC(C)(C)CC,-4.116935889
IFYSEURGMQKWJS-UHFFFAOYSA-N,2'-Hydroxy-5'-methoxychalcone,COc1ccc(O)c(C(=O)/C=C/c2ccccc2)c1,COc1ccc(c(c1)C(=O)/C=C/c2ccccc2)O,COC1=CC(=C(C=C1)O)C(=O)/C=C/C2=CC=CC=C2,-6.0
IGABWGVNDXLCDI-UHFFFAOYSA-N,,COc1cc2ncnc(Nc3ccc(F)c(Cl)c3)c2cc1OCCCN(CCO)C(C)C,CC(C)N(CCCOc1cc2c(cc1OC)ncnc2Nc3ccc(c(c3)Cl)F)CCO,COC=1C=C2N=CN=C(C2=CC1OCCCN(CCO)C(C)C)NC=3C=CC(=C(C3)Cl)F,-4.5800443
IGADPVQMANOWFP-UHFFFAOYSA-N,,CSc1nccc(Nc2cc(NC(=O)c3cc(F)cc(N4CCOCC4)c3)ccc2C)n1,Cc1ccc(cc1Nc2ccnc(n2)SC)NC(=O)c3cc(cc(c3)F)N4CCOCC4,CSC=1N=CC=C(N1)NC=2C=C(C=CC2C)NC(=O)C=3C=C(C=C(C3)N4CCOCC4)F,-6.1674910999999994
IGARGHRYKHJQSM-UHFFFAOYSA-N,Cyclohexylbenzene,c1ccc(C2CCCCC2)cc1,c1ccc(cc1)C2CCCCC2,C1CCC(CC1)C=2C=CC=CC2,-4.407751139
IGBZOHMCHDADGY-UHFFFAOYSA-N,VINYL 2-ETHYLHEXANOATE,C=COC(=O)C(CC)CCCC,CCCCC(CC)C(=O)OC=C,CCCCC(CC)C(=O)OC=C,-4.1519554880000005
IGCHBFBJDKADPG-UHFFFAOYSA-N,,CCn1c2ccccc2c2cc(NC(=O)C(N)COC)ccc21,CCn1c2ccccc2c3c1ccc(c3)NC(=O)C(COC)N,CCN1C=2C=CC=CC2C3=C1C=CC(=C3)NC(=O)C(N)COC,-2.9062396
IGCJNKGHAMTSLM-UHFFFAOYSA-N,,COc1ccc(Nc2nc(Nc3ccc(C(=O)NCCN4CCOCC4)cc3)ncc2Br)cc1,COc1ccc(cc1)Nc2c(cnc(n2)Nc3ccc(cc3)C(=O)NCCN4CCOCC4)Br,COC=1C=CC(=CC1)NC=2N=C(N=CC2Br)NC=3C=CC(=CC3)C(=O)NCCN4CCOCC4,-4.7447275
IGFHQQFPSIBGKE-UHFFFAOYSA-N,p-Nonylphenol,CCCCCCCCCc1ccc(O)cc1,CCCCCCCCCc1ccc(cc1)O,CCCCCCCCCC=1C=CC(=CC1)O,-4.49801342
IGHHGOBRVRSOBE-UHFFFAOYSA-N,,C#CCN(Cc1cc2c(N(C)CCN(C)C)nc(C)nc2cc1Br)c1ccc(C(=O)NCc2cccnc2)cc1,Cc1nc2cc(c(cc2c(n1)N(C)CCN(C)C)CN(CC#C)c3ccc(cc3)C(=O)NCc4cccnc4)Br,CN(C)CCN(C)C=1N=C(N=C2C1C=C(C(=C2)Br)CN(CC#C)C=3C=CC(=CC3)C(=O)NCC=4C=CC=NC4)C,-4.39794
IGJGWQAKIMUVSJ-UHFFFAOYSA-N,"1H-Purine-2,6-dione, 3,7-dihydro-1,3,8-trimethyl",Cc1nc2c([nH]1)N(C)C(=O)C(N)C2=O,Cc1[nH]c2c(n1)C(=O)C(C(=O)N2C)N,C12=C(NC(=N1)C)N(C(=O)C(C2=O)N)C,-0.7276
IGJMVNJEYTYYKW-UHFFFAOYSA-N,,COc1cc2ncnc(Nc3cccc4c3CCCC4)c2cc1OCCCN1CCOCC1,COc1cc2c(cc1OCCCN3CCOCC3)c(ncn2)Nc4cccc5c4CCCC5,COC=1C=C2N=CN=C(C2=CC1OCCCN3CCOCC3)NC=4C=CC=C5C4CCCC5,-3.3565473
IGJZSNRZNHDOFW-UHFFFAOYSA-N,"BENZ[a]ANTHRACENE, 5-FLUORO-7-METHYL-",Cc1c2ccccc2cc2c1cc(F)c1ccccc12,Cc1c2ccccc2cc3c1cc(c4c3cccc4)F,CC=1C=2C=CC=CC2C=C3C1C=C(C4=C3C=CC=C4)F,-7.31
IGMNYECMUMZDDF-UHFFFAOYSA-N,"BENZENEACETIC ACID, 2,5-DIHYDROXY-",O=C(O)Cc1cc(O)ccc1O,c1cc(c(cc1O)CC(=O)O)O,OC(=O)CC=1C=C(C=CC1O)O,0.706
IGMOYJSFRIASIE-UHFFFAOYSA-N,"6-Methyl-2,4-heptadione",CC(=O)CC(=O)CC(C)C,CC(C)CC(=O)CC(=O)C,O=C(CC(=O)C)CC(C)C,-1.6
IGODOXYLBBXFDW-UHFFFAOYSA-N,"1,3,3-trimethyl-2-oxabicyclo[2.2.2]octane 2-(4-methylcyclohex-3-en-1-yl)propan-2-yl acetate",CC(=O)OC(C)(C)C1CC=C(C)CC1,CC1=CCC(CC1)C(C)(C)OC(=O)C,CC(=O)OC(C)(C)C1CCC(=CC1)C,-3.4761795319999997
IGONFFFOEMASIA-UHFFFAOYSA-N,"4-aminonaphthalene-1,2-dione",NC1=CC(=O)C(=O)c2ccccc21,c1ccc2c(c1)C(=CC(=O)C2=O)N,NC1=CC(=O)C(=O)C2=C1C=CC=C2,-3.8405
IGOWHGRNPLFNDJ-UHFFFAOYSA-N,"9-Tricosene, (Z)-",CCCCCCCC/C=C/CCCCCCCCCCCCC,CCCCCCCCCCCCC/C=C/CCCCCCCC,C(=C/CCCCCCCCCCCCC)\CCCCCCCC,-8.471
IGQFKXMQIMEIJV-UHFFFAOYSA-N,"1,2,4-tris(2-methyldodecyl) benzene-1,2,4-tricarboxylate",CC(C)CCCCCCCCCCOC(=O)c1ccc(C(=O)OCCCCCCCCCCC(C)C)c(C(=O)OCCCCCCCCCCC(C)C)c1,CC(C)CCCCCCCCCCOC(=O)c1ccc(c(c1)C(=O)OCCCCCCCCCCC(C)C)C(=O)OCCCCCCCCCCC(C)C,CC(C)CCCCCCCCCCOC(=O)C=1C=CC(=C(C1)C(=O)OCCCCCCCCCCC(C)C)C(=O)OCCCCCCCCCCC(C)C,-7.18011858
IGSBHTZEJMPDSZ-UHFFFAOYSA-N,4-[(4-amino-3-methylcyclohexyl)methyl]-2-methylcyclohexan-1-amine,CC1CC(CC2CCC(N)C(C)C2)CCC1N,CC1CC(CCC1N)CC2CCC(C(C2)C)N,CC1CC(CCC1N)CC2CCC(C(C2)C)N,-1.821019181
IGUAWAHZJZXCSI-UHFFFAOYSA-N,,O=C(Cn1ccccc1=O)Nc1ccc2c(c1)-c1ccccc1S2(=O)=O,c1ccc2c(c1)-c3cc(ccc3S2(=O)=O)NC(=O)Cn4ccccc4=O,O=C(CN1C=CC=CC1=O)NC=2C=CC3=C(C2)C=4C=CC=CC4S3(=O)=O,-5.8239087
IGUYEXXAGBDLLX-UHFFFAOYSA-N,CHLOZOLINATE,CCOC(=O)C1(C)OC(=O)N(c2cc(Cl)cc(Cl)c2)C1=O,CCOC(=O)C1(C(=O)N(C(=O)O1)c2cc(cc(c2)Cl)Cl)C,N1(C(=O)C(OC1=O)(C(=O)OCC)C)C2=CC(=CC(=C2)Cl)Cl,-4.0162
IGZHQPOPEWMVBF-UHFFFAOYSA-N,,COc1cc2c(NC(=O)Nc3c(C)cccc3C)ncnc2cc1OCCCCN1CCOCC1,Cc1cccc(c1NC(=O)Nc2c3cc(c(cc3ncn2)OCCCCN4CCOCC4)OC)C,COC=1C=C2C(=NC=NC2=CC1OCCCCN3CCOCC3)NC(=O)NC=4C(=CC=CC4C)C,-5.3680637
IHDHBODHKPXKPJ-UHFFFAOYSA-O,,Cc1nc2ccccc2[n+]2nn(-c3ccc(Cl)cc3)c(O)c12,Cc1c2c(n(n[n+]2c3ccccc3n1)c4ccc(cc4)Cl)O,ClC=1C=CC(=CC1)N2C(=C3[N+](=N2)C=4C=CC=CC4N=C3C)O,-5.605912
IHEAINLLXOBUEW-UHFFFAOYSA-N,"Benzenesulfonamide, 4-amino-N-(4,5-dimethyl-2-py",Cc1cnc(NS(=O)(=O)c2ccc(N)cc2)nc1C,Cc1cnc(nc1C)NS(=O)(=O)c2ccc(cc2)N,CC=1C=NC(=NC1C)NS(=O)(=O)C=2C=CC(=CC2)N,-3.1435
IHGZZOBTWYHOQB-UHFFFAOYSA-N,,COc1cc2c(Nc3ncc(CC(=O)Nc4ccc(F)c(Cl)c4)s3)ncnc2cc1OCCCN1CCN(CCO)CC1,COc1cc2c(cc1OCCCN3CCN(CC3)CCO)ncnc2Nc4ncc(s4)CC(=O)Nc5ccc(c(c5)Cl)F,COC=1C=C2C(=NC=NC2=CC1OCCCN3CCN(CC3)CCO)NC4=NC=C(S4)CC(=O)NC=5C=CC(=C(C5)Cl)F,-6.30103
IHIDFKLAWYPTKB-UHFFFAOYSA-N,AROCLOR 1016,Clc1ccc(-c2c(Cl)cccc2Cl)cc1,c1cc(c(c(c1)Cl)c2ccc(cc2)Cl)Cl,ClC=1C=CC(=CC1)C=2C(=CC=CC2Cl)Cl,-6.14
IHLJGRKMODLXFG-UHFFFAOYSA-N,,CCn1c2ccccc2c2cc(NC(=O)c3cc(C)on3)ccc21,CCn1c2ccccc2c3c1ccc(c3)NC(=O)c4cc(on4)C,CCN1C=2C=CC=CC2C3=C1C=CC(=C3)NC(=O)C=4C=C(ON4)C,-5.60206
IHLSTDPRNIIDLO-UHFFFAOYSA-N,miconazole,O=C(O)C1CCCNC1NC1CCCC(C(F)(F)F)C1,C1CC(CC(C1)NC2C(CCCN2)C(=O)O)C(F)(F)F,C(=O)(C1C(NCCC1)NC2CCCC(C2)C(F)(F)F)O,-5.069
IHLYKDLUVNJGNZ-UHFFFAOYSA-N,,Cc1ccc(Cl)c(Nc2ccnc(Nc3ccc(S(=O)(=O)Nc4nnc(C)s4)cc3)n2)c1,Cc1ccc(c(c1)Nc2ccnc(n2)Nc3ccc(cc3)S(=O)(=O)Nc4nnc(s4)C)Cl,CC1=NN=C(S1)NS(=O)(=O)C=2C=CC(=CC2)NC=3N=CC=C(N3)NC=4C=C(C=CC4Cl)C,-5.327902099999999
IHOBQBWTVNNUBF-UHFFFAOYSA-N,,Cn1c(=O)c2ccccc2c2cc(NC(=O)CCc3ccncc3)ccc21,Cn1c2ccc(cc2c3ccccc3c1=O)NC(=O)CCc4ccncc4,CN1C(=O)C=2C=CC=CC2C3=C1C=CC(=C3)NC(=O)CCC=4C=CN=CC4,-4.6777807000000005
IHOCNGFBQKDXBA-UHFFFAOYSA-N,,O=CN(O)C(CCCc1ncccn1)CS(=O)(=O)N1CCN(c2ncc(-c3ccc(F)cc3)cn2)CC1,c1cnc(nc1)CCCC(CS(=O)(=O)N2CCN(CC2)c3ncc(cn3)c4ccc(cc4)F)N(C=O)O,ON(C=O)C(CCCC=1N=CC=CN1)CS(=O)(=O)N2CCN(CC2)C=3N=CC(=CN3)C=4C=CC(=CC4)F,-5.360513500000001
IHPDTPWNFBQHEB-UHFFFAOYSA-N,meso-Hydrobenzoin,OC(c1ccccc1)C(O)c1ccccc1,c1ccc(cc1)C(C(c2ccccc2)O)O,OC(C1=CC=CC=C1)C(C2=CC=CC=C2)O,-1.9315
IHPKGUQCSIINRJ-UHFFFAOYSA-N,"(3E)-3,7-dimethylocta-1,3,6-triene",C=C/C(C)=C/CC=C(C)C,CC(=CC/C=C(\C)/C=C)C,CC(=CC/C=C(\C)/C=C)C,-3.9730000000000003
IHPUVAUZMHQZSK-UHFFFAOYSA-N,"Phosphoric acid, diethyl propyl ester",CCCOP(=O)(OCC)OCC,CCCOP(=O)(OCC)OCC,P(=O)(OCC)(OCC)OCCC,0.4063
IHPYMWDTONKSCO-UHFFFAOYSA-N,2-[4-(2-sulfoethyl)piperazin-1-yl]ethane-1-sulfonic acid,O=S(=O)(O)CCN1CCN(CCS(=O)(=O)O)CC1,C1CN(CCN1CCS(=O)(=O)O)CCS(=O)(=O)O,OS(=O)(=O)CCN1CCN(CC1)CCS(=O)(=O)O,-2.747796971
IHRACTUONPFMSI-UHFFFAOYSA-N,"1,3-dimethyl 5-[(E)-2-{2-oxo-1-[(2-oxo-2,3-dihydro-1H-1,3-benzodiazol-5-yl)carbamoyl]propyl}diazen-1-yl]benzene-1,3-dicarboxylate",COC(=O)c1cc(/N=N/C(C(C)=O)C(=O)Nc2ccc3[nH]c(=O)[nH]c3c2)cc(C(=O)OC)c1,CC(=O)C(C(=O)Nc1ccc2c(c1)[nH]c(=O)[nH]2)/N=N/c3cc(cc(c3)C(=O)OC)C(=O)OC,COC(=O)C=1C=C(C=C(C1)C(=O)OC)/N=N/C(C(=O)C)C(=O)NC=2C=CC=3NC(=O)NC3C2,-6.3778692260000005
IHTGGLAKTYJQIY-UHFFFAOYSA-N,"(5E)-5-(Diphenylhydrazono)-1,2,3,4-pentanetetrol",OCC(O)C(O)C(O)/C=N/N(c1ccccc1)c1ccccc1,c1ccc(cc1)N(c2ccccc2)/N=C/C(C(C(CO)O)O)O,OCC(O)C(O)C(O)/C=N/N(C1=CC=CC=C1)C2=CC=CC=C2,-3.1
IHTSDBYPAZEUOP-UHFFFAOYSA-N,Bis(2-butoxyethyl) adipate,CCCCOCCOC(=O)CCCCC(=O)OCCOCCCC,CCCCOCCOC(=O)CCCCC(=O)OCCOCCCC,CCCCOCCOC(=O)CCCCC(=O)OCCOCCCC,-4.958733139
IHYJTAOFMMMOPX-UHFFFAOYSA-N,"L-Valine, N-acetyl-",CC(=O)N[C@H](C(=O)O)C(C)C,CC(C)[C@@H](C(=O)O)NC(=O)C,CC(C)[C@H](NC(=O)C)C(=O)O,-0.3599
IHYQQTXJBAWLDR-UHFFFAOYSA-N,,COc1cc2c(Nc3cnc(NC(=O)CCCC4CCCCC4)nc3)ncnc2cc1OCCCNC1CCCCC1,COc1cc2c(cc1OCCCNC3CCCCC3)ncnc2Nc4cnc(nc4)NC(=O)CCCC5CCCCC5,COC=1C=C2C(=NC=NC2=CC1OCCCNC3CCCCC3)NC=4C=NC(=NC4)NC(=O)CCCC5CCCCC5,-5.49485
IIBYAHWJQTYFKB-UHFFFAOYSA-N,bezafibrate,CC(C)(Oc1ccc(CCNC(=O)c2ccc(Cl)cc2)cc1)C(=O)O,CC(C)(C(=O)O)Oc1ccc(cc1)CCNC(=O)c2ccc(cc2)Cl,CC(C)(C(=O)O)OC1=CC=C(C=C1)CCNC(=O)C2=CC=C(C=C2)Cl,-5.368160871000001
IICMPULOFRBFRL-UHFFFAOYSA-N,,C#CCN(Cc1cc2c(=O)n(C)c(C)nc2cc1[S+](C)[O-])c1ccc(C(=O)NCc2cccnc2)cc1,Cc1nc2cc(c(cc2c(=O)n1C)CN(CC#C)c3ccc(cc3)C(=O)NCc4cccnc4)S(=O)C,CS(=O)C=1C=C2N=C(N(C(=O)C2=CC1CN(CC#C)C=3C=CC(=CC3)C(=O)NCC=4C=CC=NC4)C)C,-3.39794
IIEKPTFTLXSECS-UHFFFAOYSA-N,,CS(=O)(=O)n1c2c(c3cc(NC(=O)CN4CCCC4=O)ccc31)CCCC2,CS(=O)(=O)n1c2ccc(cc2c3c1CCCC3)NC(=O)CN4CCCC4=O,CS(=O)(=O)N1C2=C(C3=C1C=CC(=C3)NC(=O)CN4CCCC4=O)CCCC2,-4.2441251
IIGMITQLXAGZTL-UHFFFAOYSA-N,2-Ethylhexyl octadecanoate,CCCCCCCCCCCCCCCCCC(=O)OCCCCCCCC,CCCCCCCCCCCCCCCCCC(=O)OCCCCCCCC,CCCCCCCCCCCCCCCCCC(=O)OCCCCCCCC,-6.899246098
IIKSFQIOFHBWSO-UHFFFAOYSA-N,"2,9-Bis(2-phenylethyl)anthra(2,1,9-def:6,5,10-d'e'f')diisoquinoline-1,3,8,10(2H,9H)-tetrone",O=C1c2ccc3c4ccc5c6c(ccc(c7ccc(c2c37)C(=O)N1CCc1ccccc1)c64)C(=O)N(CCc1ccccc1)C5=O,c1ccc(cc1)CCN2C(=O)c3ccc4c5ccc6c7c5c(ccc7C(=O)N(C6=O)CCc8ccccc8)c9c4c3c(cc9)C2=O,O=C1N(C(=O)C=2C=CC=3C=4C=CC5=C6C4C(=CC=C6C(=O)N(C5=O)CCC=7C=CC=CC7)C=8C3C2C1=CC8)CCC=9C=CC=CC9,-8.476074398
IILWRBLNZOGRSD-UHFFFAOYSA-N,"2-Furancarboxylic acid, 5-nitro-, [3-(5-nitro-2-",O=C(N/N=C/C=C/c1ccc([N+](=O)[O-])o1)c1ccc([N+](=O)[O-])o1,c1cc(oc1/C=C/C=N/NC(=O)c2ccc(o2)[N+](=O)[O-])[N+](=O)[O-],O=C(N/N=C/C=C/C=1OC(=CC1)[N+](=O)[O-])C=2OC(=CC2)[N+](=O)[O-],-4.3475
IIPPZYMJEUHAFJ-UHFFFAOYSA-N,,Cc1ccc(F)c(Nc2ccnc(Nc3ccc(OCCCN(C)C)cc3)n2)c1,Cc1ccc(c(c1)Nc2ccnc(n2)Nc3ccc(cc3)OCCCN(C)C)F,CN(C)CCCOC=1C=CC(=CC1)NC=2N=CC=C(N2)NC=3C=C(C=CC3F)C,-3.2924297999999994
IIPZYDQGBIWLBU-UHFFFAOYSA-N,"dinoterb;  2-tert-butyl-4,6-dinitrophenol",CC(C)(C)c1cc([N+](=O)[O-])cc([N+](=O)[O-])c1O,CC(C)(C)c1cc(cc(c1O)[N+](=O)[O-])[N+](=O)[O-],CC(C)(C)C=1C=C(C=C(C1O)[N+](=O)[O-])[N+](=O)[O-],-4.7274
IIQICFFMXDTZPU-UHFFFAOYSA-N,,O=CN(O)C(CCCc1ncccn1)CS(=O)(=O)N1CCN(c2ccc(F)cc2)CC1,c1cnc(nc1)CCCC(CS(=O)(=O)N2CCN(CC2)c3ccc(cc3)F)N(C=O)O,ON(C=O)C(CCCC=1N=CC=CN1)CS(=O)(=O)N2CCN(CC2)C=3C=CC(=CC3)F,-2.853872
IIQTWTHBDAEKBJ-UHFFFAOYSA-N,N1-(2-CHLORO-4-METHYLPHENYL)SULFANILAMIDE;  2-Chloro-4-methylsulfabenzene,Cc1ccc(NS(=O)(=O)c2ccc(N)cc2)c(Cl)c1,Cc1ccc(c(c1)Cl)NS(=O)(=O)c2ccc(cc2)N,CC1=CC(=C(C=C1)NS(=O)(=O)C2=CC=C(C=C2)N)Cl,-4.32
IIRWVLQOIRMSDU-UHFFFAOYSA-N,"Glucopyranoside, 5-formyl-2-methoxyphenyl, thios",COc1ccc(/C=N/NC(N)=S)cc1OC1OC(CO)C(O)C(O)C1O,COc1ccc(cc1OC2C(C(C(C(O2)CO)O)O)O)/C=N/NC(=S)N,OCC1OC(C(C(C1O)O)O)OC2=CC(=CC=C2OC)/C=N/NC(=S)N,-2.889
IIRYLCSFXJLQKA-UHFFFAOYSA-N,,O=C1OC(CNc2ccon2)CN1c1ccc(C2=CCS(=O)(=O)CC2)c(F)c1,c1cc(c(cc1N2CC(OC2=O)CNc3ccon3)F)C4=CCS(=O)(=O)CC4,FC=1C=C(C=CC1C2=CCS(=O)(=O)CC2)N3CC(OC3=O)CNC=4C=CON4,-5.0132283
IISBACLAFKSPIT-UHFFFAOYSA-N,diphenylolpropane,CC(C)(c1ccc(O)cc1)c1ccc(O)cc1,CC(C)(c1ccc(cc1)O)c2ccc(cc2)O,OC1=CC=C(C=C1)C(C2=CC=C(C=C2)O)(C)C,-3.2793
IISXZSRCIXGFGN-UHFFFAOYSA-N,"(3,4,5,6-tetrahydroxyoxan-2-yl)methyl-n-nonylcarbamate",CCCCCCCCCNC(=O)OCC1OC(O)C(O)C(O)C1O,CCCCCCCCCNC(=O)OCC1C(C(C(C(O1)O)O)O)O,CCCCCCCCCNC(=O)OCC1OC(C(C(C1O)O)O)O,-2.9619999999999997
IITOQKJCTHQVBH-UHFFFAOYSA-N,,O=CN(O)C(CCCc1ncccn1)CS(=O)(=O)N1CCN(c2ccc(C#Cc3ccccn3)cn2)CC1,c1ccnc(c1)C#Cc2ccc(nc2)N3CCN(CC3)S(=O)(=O)CC(CCCc4ncccn4)N(C=O)O,ON(C=O)C(CCCC=1N=CC=CN1)CS(=O)(=O)N2CCN(CC2)C=3C=CC(=CN3)C#CC=4C=CC=CN4,-3.8601209
IIUKCYITROTKFB-UHFFFAOYSA-N,[(1S)-3-(4-methylpent-3-enyl)-1-cyclohex-3-enyl]methyl acetate,CC(=O)OC[C@H]1CCC=C(CCC=C(C)C)C1,CC(=CCCC1=CCC[C@@H](C1)COC(=O)C)C,CC(=O)OC[C@H]1CCC=C(C1)CCC=C(C)C,-4.975812393
IIUYNOCBVMYAHS-UHFFFAOYSA-N,BENZYL-KNI-727,CC(C)(C)NC(=O)C1N(C(=O)C(O)C(Cc2ccccc2)NC(=O)Cc2ccccc2)CSC1(C)C,CC1(C(N(CS1)C(=O)C(C(Cc2ccccc2)NC(=O)Cc3ccccc3)O)C(=O)NC(C)(C)C)C,CC(C)(C)NC(=O)C1N(CSC1(C)C)C(=O)C(O)C(CC2=CC=CC=C2)NC(=O)CC3=CC=CC=C3,-3.72
IIUZTXTZRGLYTI-UHFFFAOYSA-N,Griseofulvin,COc1cc(OC)c2c(c1Cl)O[C@]1(C2=O)C(OC)CC(=O)C[C@H]1C,C[C@@H]1CC(=O)CC([C@]12C(=O)c3c(cc(c(c3O2)Cl)OC)OC)OC,COC1CC(=O)C[C@H]([C@]12OC=3C(=C(C=C(C3C2=O)OC)OC)Cl)C,-4.611000000000001
IIVDVROKGKVRAD-UHFFFAOYSA-N,"7-(3-amino-2-ethylazetidin-1-yl)-1-cyclopropyl-6,8-difluoro-4-oxoquinoline-3-carboxylic acid",CCC1C(N)CN1c1c(F)cc2c(=O)c(C(=O)O)cn(C3CC3)c2c1F,CCC1C(CN1c2c(cc3c(c2F)n(cc(c3=O)C(=O)O)C4CC4)F)N,CCC1C(CN1C2=C(C3=C(C=C2F)C(=O)C(=CN3C4CC4)C(=O)O)F)N,-3.8110000000000004
IIVOEPVKDWTLJB-UHFFFAOYSA-N,ALLOPURIN-1-YL-METHYL  BUTYRATE;   1-(Butanoyloxymethyl)allopurinol,CCCC(=O)OCn1ncc2c(=O)[nH]cnc21,CCCC(=O)OCn1c2c(cn1)c(=O)[nH]cn2,CCCC(=O)OCN1N=CC2=C1N=CNC2=O,-2.83
IIYFAKIEWZDVMP-UHFFFAOYSA-N,N-TRIDECANE,CCCCCCCCCCCCC,CCCCCCCCCCCCC,CCCCCCCCCCCCC,-7.5938
IIZIPXWXNPFUOU-UHFFFAOYSA-N,"ACETAMIDE, 2-(BENZOYLOXY)-N-ETHYL-N-(2-HYDROXYET",CCN(CCO)C(=O)COC(=O)c1ccccc1,CCN(CCO)C(=O)COC(=O)c1ccccc1,O=C(N(CCO)CC)COC(=O)C=1C=CC=CC1,-1.3685
IJALWSVNUBBQRA-UHFFFAOYSA-N,3-methyl-4-propan-2-ylphenol,Cc1cc(O)ccc1C(C)C,Cc1cc(ccc1C(C)C)O,CC(C)C=1C=CC(=CC1C)O,-2.854755677
IJDOCVZCRNPQLK-UHFFFAOYSA-N,,CC(C)NCC(O)COc1ccc(Nc2ncc(Cl)c(Nc3ccccc3)n2)cc1,CC(C)NCC(COc1ccc(cc1)Nc2ncc(c(n2)Nc3ccccc3)Cl)O,CC(C)NCC(O)COC=1C=CC(=CC1)NC=2N=CC(=C(N2)NC=3C=CC=CC3)Cl,-4.0457575
IJFPVINAQGWBRJ-UHFFFAOYSA-N,diisooctyl phthalate,CC(C)CCCCCOC(=O)c1ccccc1C(=O)OCCCCCC(C)C,CC(C)CCCCCOC(=O)c1ccccc1C(=O)OCCCCCC(C)C,O=C(OCCCCCC(C)C)C=1C(=CC=CC1)C(=O)OCCCCCC(C)C,-6.63725
IJFXRHURBJZNAO-UHFFFAOYSA-N,M-HYDROXYBENZOIC ACID,O=C(O)c1cccc(O)c1,c1cc(cc(c1)O)C(=O)O,OC(=O)C=1C=CC=C(C1)O,-1.27995
IJGHCPZVSMFQJX-UHFFFAOYSA-N,,CCSCCNCC(O)COc1cc2ncnc(Nc3cnc(NC(=O)c4ccccc4)nc3)c2cc1OC,CCSCCNCC(COc1cc2c(cc1OC)c(ncn2)Nc3cnc(nc3)NC(=O)c4ccccc4)O,CCSCCNCC(O)COC=1C=C2N=CN=C(C2=CC1OC)NC=3C=NC(=NC3)NC(=O)C=4C=CC=CC4,-5.0043648
IJHIIHORMWQZRQ-UHFFFAOYSA-N,(ethenesulfonyl)methanesulfonylethene,C=CS(=O)(=O)CS(=O)(=O)C=C,C=CS(=O)(=O)CS(=O)(=O)C=C,C=CS(=O)(=O)CS(=O)(=O)C=C,-3.919947725
IJJVMEJXYNJXOJ-UHFFFAOYSA-N,Fluquinconazole,O=c1c2cc(F)ccc2nc(-n2cncn2)n1-c1ccc(Cl)cc1Cl,c1cc2c(cc1F)c(=O)n(c(n2)n3cncn3)c4ccc(cc4Cl)Cl,FC=1C=CC=2N=C(N(C(=O)C2C1)C=3C=CC(=CC3Cl)Cl)N4C=NC=N4,-5.5754
IJJYMVHCWKDWJY-UHFFFAOYSA-N,,COc1cc2c(Nc3ccc(Oc4ccccc4OC)cc3)c(C#N)cnc2cc1OCC(O)CN1C(C)CCCC1C,CC1CCCC(N1CC(COc2cc3c(cc2OC)c(c(cn3)C#N)Nc4ccc(cc4)Oc5ccccc5OC)O)C,COC=1C=CC=CC1OC=2C=CC(=CC2)NC=3C(=CN=C4C3C=C(C(=C4)OCC(O)CN5C(CCCC5C)C)OC)C#N,-4.4436975
IJNPIHLZSZCGOC-UHFFFAOYSA-N,"1,8-ANTHRAQUINONEDISULFONIC ACID",O=C1c2cccc(S(=O)(=O)O)c2C(=O)c2c1cccc2S(=O)(=O)O,c1cc2c(c(c1)S(=O)(=O)O)C(=O)c3c(cccc3S(=O)(=O)O)C2=O,OS(=O)(=O)C=1C=CC=C2C1C(=O)C3=C(C=CC=C3S(=O)(=O)O)C2=O,1.2571
IJTNSXPMYKJZPR-UHFFFAOYSA-N,Nystatin,CC/C=C/C=C/C=C/C=C/CCCCCCCC(=O)O,CC/C=C/C=C/C=C/C=C/CCCCCCCC(=O)O,C(=O)(O)CCCCCCC/C=C/C=C/C=C/C=C/CC,-2.885
IJVSCEBXUSROKZ-UHFFFAOYSA-N,,NC(=O)C1Cc2c([nH]c3ccccc23)C(c2ccc(Cl)cc2)N1,c1ccc2c(c1)c3c([nH]2)C(NC(C3)C(=O)N)c4ccc(cc4)Cl,C1(NC(CC2=C1NC3=C2C=CC=C3)C(=O)N)C=4C=CC(=CC4)Cl,-5.6390481
IJVVMALNRQKIAF-UHFFFAOYSA-N,,COc1cc2c(Nc3cccc4c3OCO4)ncnc2cc1OCCN1CCCCCC1,COc1cc2c(cc1OCCN3CCCCCC3)ncnc2Nc4cccc5c4OCO5,COC=1C=C2C(=NC=NC2=CC1OCCN3CCCCCC3)NC=4C=CC=C5C4OCO5,-2.6055482999999997
IJXHLVMUNBOGRR-UHFFFAOYSA-N,Methyl nonanoate,CCCCCCCCC(=O)OC,CCCCCCCCC(=O)OC,CCCCCCCCC(=O)OC,-3.628
IJYLCEWIUACEMS-UHFFFAOYSA-N,,COc1cc2c(Nc3ccc(NC(=O)c4ccccc4)cc3)ncnc2cc1OCCNCCNC(C)=O,CC(=O)NCCNCCOc1cc2c(cc1OC)c(ncn2)Nc3ccc(cc3)NC(=O)c4ccccc4,COC=1C=C2C(=NC=NC2=CC1OCCNCCNC(=O)C)NC=3C=CC(=CC3)NC(=O)C=4C=CC=CC4,-4.236572
IJYYSKDPTGVPLR-UHFFFAOYSA-N,,CC(C)(C)OC(=O)N1CCC(Oc2ccc(-c3cc(C(N)=O)c(NC(N)=O)s3)cn2)CC1,CC(C)(C)OC(=O)N1CCC(CC1)Oc2ccc(cn2)c3cc(c(s3)NC(=O)N)C(=O)N,CC(C)(C)OC(=O)N1CCC(CC1)OC=2C=CC(=CN2)C3=CC(=C(S3)NC(=O)N)C(=O)N,-5.4907975
IJZSFOIZVXCSFP-UHFFFAOYSA-N,2-METHYL-4-BROMOACETANILIDE,CC(=O)Nc1ccc(Br)cc1C,Cc1cc(ccc1NC(=O)C)Br,CC(=O)NC=1C=CC(=CC1C)Br,-1.756
IKCLCGXPQILATA-UHFFFAOYSA-N,o-chlorobenzoic_acid,O=C(O)c1ccccc1Cl,c1ccc(c(c1)C(=O)O)Cl,OC(=O)C=1C=CC=CC1Cl,-1.89
IKEHOXWJQXIQAG-UHFFFAOYSA-N,2-tert-butyl-4-methylphenol,Cc1ccc(O)c(C(C)(C)C)c1,Cc1ccc(c(c1)C(C)(C)C)O,CC=1C=CC(=C(C1)C(C)(C)C)O,-2.691876812
IKENVDNFQMCRTR-UHFFFAOYSA-N,conivaptan hydrochloride,Cc1nc2c([nH]1)CCN(C(=O)c1ccc(NC(=O)c3ccccc3-c3ccccc3)cc1)c1ccccc1-2,Cc1[nH]c2c(n1)-c3ccccc3N(CC2)C(=O)c4ccc(cc4)NC(=O)c5ccccc5c6ccccc6,CC1=NC2=C(N1)CCN(C=3C2=CC=CC3)C(=O)C4=CC=C(C=C4)NC(=O)C5=CC=CC=C5C6=CC=CC=C6,-3.5522949919999998
IKGWKPOMADTWLH-UHFFFAOYSA-N,,Cc1nc(C)n(C)c1-c1ccnc(Nc2ccc(S(=O)(=O)NCCn3cccn3)cc2)n1,Cc1c(n(c(n1)C)C)c2ccnc(n2)Nc3ccc(cc3)S(=O)(=O)NCCn4cccn4,CC=1N=C(N(C1C=2C=CN=C(N2)NC=3C=CC(=CC3)S(=O)(=O)NCCN4C=CC=N4)C)C,-4.5934598
IKHKJYWPWWBSFZ-UHFFFAOYSA-O,"sodium 4-{[4-(diethylamino)phenyl][4-(diethyliminio)cyclohexa-2,5-dien-1-ylidene]methyl}benzene-1,3-disulfonate",CCN(CC)c1ccc([C+](c2ccc(N(CC)CC)cc2)c2ccc(S(=O)(=O)O)cc2S(=O)(=O)O)cc1,CCN(CC)c1ccc(cc1)[C+](c2ccc(cc2)N(CC)CC)c3ccc(cc3S(=O)(=O)O)S(=O)(=O)O,CCN(CC)C=1C=CC(=CC1)[C+](C=2C=CC(=CC2)N(CC)CC)C=3C=CC(=CC3S(=O)(=O)O)S(=O)(=O)O,-0.406694635
IKHPIPADWFUJJM-UHFFFAOYSA-N,,CC(O)(C(=O)Nc1ccc(S(=O)(=O)c2cccc(N)n2)c(Cl)c1Cl)C(F)(F)F,CC(C(=O)Nc1ccc(c(c1Cl)Cl)S(=O)(=O)c2cccc(n2)N)(C(F)(F)F)O,CC(O)(C(=O)NC=1C=CC(=C(C1Cl)Cl)S(=O)(=O)C=2C=CC=C(N2)N)C(F)(F)F,-3.3467875
IKHXSNDSCIBSJS-UHFFFAOYSA-N,,Cc1ccc(NC(=O)c2ccnc(N3CCOCC3)c2)cc1NC(=O)c1cccc(CN2CCC(O)C2)c1,Cc1ccc(cc1NC(=O)c2cccc(c2)CN3CCC(C3)O)NC(=O)c4ccnc(c4)N5CCOCC5,CC=1C=CC(=CC1NC(=O)C=2C=CC=C(C2)CN3CCC(C3)O)NC(=O)C=4C=CN=C(C4)N5CCOCC5,-2.79588
IKJFYINYNJYDTA-UHFFFAOYSA-N,"Dibenzothiophene 5,5-dioxide",O=S1(=O)c2ccccc2-c2ccccc21,c1ccc2c(c1)-c3ccccc3S2(=O)=O,S1(=O)(=O)C2=C(C=CC=C2)C3=C1C=CC=C3,-4.571000000000001