inchikey,Name,SMILES_stand,SMILES,kekSmiles,logS
DIXRMZGIJNJUGL-UHFFFAOYSA-N,ARILDONE,CCC(=O)C(CCCCCCOc1ccc(OC)cc1Cl)C(=O)CC,CCC(=O)C(CCCCCCOc1ccc(cc1Cl)OC)C(=O)CC,CCC(=O)C(CCCCCCOC1=C(C=C(C=C1)OC)Cl)C(=O)CC,-5.268
DIZVVIFQDQJSPL-UHFFFAOYSA-N,,COc1cc2c(Nc3ccc(NC(=O)c4ccccc4)cc3)ncnc2cc1OCCCN1C(C)CCCC1C,CC1CCCC(N1CCCOc2cc3c(cc2OC)c(ncn3)Nc4ccc(cc4)NC(=O)c5ccccc5)C,COC=1C=C2C(=NC=NC2=CC1OCCCN3C(CCCC3C)C)NC=4C=CC(=CC4)NC(=O)C=5C=CC=CC5,-2.7876703
DJBNUMBKLMJRSA-UHFFFAOYSA-N,flecainide acetate,O=C(NCC1CCCCN1)c1cc(OCC(F)(F)F)ccc1OCC(F)(F)F,c1cc(c(cc1OCC(F)(F)F)C(=O)NCC2CCCCN2)OCC(F)(F)F,C1CCNC(C1)CNC(=O)C2=C(C=CC(=C2)OCC(F)(F)F)OCC(F)(F)F,-0.991290164
DJBQBNLHDSCAJI-UHFFFAOYSA-N,3-methyl-6-nitro-3H-2-benzofuran-1-one,CC1OC(=O)c2cc([N+](=O)[O-])ccc21,CC1c2ccc(cc2C(=O)O1)[N+](=O)[O-],CC1OC(=O)C2=C1C=CC(=C2)[N+](=O)[O-],-2.616
DJCAHYJNGAOVQP-UHFFFAOYSA-N,,NS(=O)(=O)c1ccc(-c2cc3ccccc3s2)cc1,c1ccc2c(c1)cc(s2)c3ccc(cc3)S(=O)(=O)N,NS(=O)(=O)C=1C=CC(=CC1)C2=CC=3C=CC=CC3S2,-5.6575773
DJHHDLMTUOLVHY-UHFFFAOYSA-N,"1,2,3,4-tetrachlorodibenzodioxin",Clc1c(Cl)c(Cl)c2c(c1Cl)Oc1ccccc1O2,c1ccc2c(c1)Oc3c(c(c(c(c3Cl)Cl)Cl)Cl)O2,ClC=1C(=C(C2=C(C1Cl)OC=3C(=CC=CC3)O2)Cl)Cl,-8.77
DJMINGJGFGSDDB-UHFFFAOYSA-N,n-acetylacyclovir,CC(=O)Nc1nc(=O)c2ncn(COCCO)c2[nH]1,CC(=O)Nc1[nH]c2c(c(=O)n1)ncn2COCCO,O(CN1C=2NC(=NC(=O)C2N=C1)NC(=O)C)CCO,-1.921
DJNTZVRUYMHBTD-UHFFFAOYSA-N,Octyl octanoate,CCCCCCCCOC(=O)CCCCCCC,CCCCCCCCOC(=O)CCCCCCC,CCCCCCCCOC(=O)CCCCCCC,-6.709999413999999
DJPMNSBXMANFGC-UHFFFAOYSA-N,,COc1cc2ncnc(Nc3ccc(F)c(Cl)c3)c2cc1OCC(O)CN1CC(C)OC(C)C1,CC1CN(CC(O1)C)CC(COc2cc3c(cc2OC)ncnc3Nc4ccc(c(c4)Cl)F)O,COC=1C=C2N=CN=C(C2=CC1OCC(O)CN3CC(OC(C3)C)C)NC=4C=CC(=C(C4)Cl)F,-4.552842
DJPZSBANTAQNFN-UHFFFAOYSA-N,testosterone acetate,CC(=O)OC1CCC2C3CCC4=CC(=O)CCC4(C)C3CCC12C,CC(=O)OC1CCC2C1(CCC3C2CCC4=CC(=O)CCC34C)C,O=C(OC1C2(C(C3C(C4(C(=CC(=O)CC4)CC3)C)CC2)CC1)C)C,-5.182
DJQAFBMZXZAPBG-UHFFFAOYSA-N,,CC(C)NCC(O)COc1ccc(Nc2ncc(Br)c(Nc3ccc(F)cc3F)n2)cc1,CC(C)NCC(COc1ccc(cc1)Nc2ncc(c(n2)Nc3ccc(cc3F)F)Br)O,CC(C)NCC(O)COC=1C=CC(=CC1)NC=2N=CC(=C(N2)NC=3C=CC(=CC3F)F)Br,-4.6575773
DJRYWYUQWJERMJ-UHFFFAOYSA-N,,CC(CO)n1c2ccccc2c2cc(NC(=O)N3CCOCC3)ccc21,CC(CO)n1c2ccccc2c3c1ccc(c3)NC(=O)N4CCOCC4,CC(CO)N1C=2C=CC=CC2C3=C1C=CC(=C3)NC(=O)N4CCOCC4,-3.2006595
DJRZPZBRKRAGBD-UHFFFAOYSA-N,disodium 8-(phenylamino)-5-[(E)-2-{4-[(E)-2-(3-sulfonatophenyl)diazen-1-yl]naphthalen-1-yl}diazen-1-yl]naphthalene-1-sulfonate,O=S(=O)(O)c1cccc(/N=N/c2ccc(/N=N/c3ccc(Nc4ccccc4)c4c(S(=O)(=O)O)cccc34)c3ccccc23)c1,c1ccc(cc1)Nc2ccc(c3c2c(ccc3)S(=O)(=O)O)/N=N/c4ccc(c5c4cccc5)/N=N/c6cccc(c6)S(=O)(=O)O,OS(=O)(=O)C=1C=CC=C(C1)/N=N/C=2C=CC(=C3C2C=CC=C3)/N=N/C=4C=CC(=C5C4C=CC=C5S(=O)(=O)O)NC=6C=CC=CC6,-0.532519863
DJUIBGHXYAVYHM-UHFFFAOYSA-N,,COc1cc2c(Nc3cnc(NC(=O)c4cccn4C)nc3)ncnc2cc1OCC(O)CNC1CCCCC1,Cn1cccc1C(=O)Nc2ncc(cn2)Nc3c4cc(c(cc4ncn3)OCC(CNC5CCCCC5)O)OC,COC=1C=C2C(=NC=NC2=CC1OCC(O)CNC3CCCCC3)NC=4C=NC(=NC4)NC(=O)C5=CC=CN5C,-3.7958800000000004
DJVMRHACLIROPJ-UHFFFAOYSA-N,5'-Propanoylidoxuridine; 5'-Propanoyl-5-Iodo-2'-deoxyuridine; 5'-Propanoyl-IdU,CCC(=O)OCC1OC(n2cc(I)c(=O)[nH]c2=O)CC1O,CCC(=O)OCC1C(CC(O1)n2cc(c(=O)[nH]c2=O)I)O,CCC(=O)OCC1OC(CC1O)N2C=C(C(=O)NC2=O)I,-2.46
DJWFNQUDPJTSAD-UHFFFAOYSA-N,N-octadecyloctadecanamide,CCCCCCCCCCCCCCCCCCNC(=O)CCCCCCCCCCCCCCCCC,CCCCCCCCCCCCCCCCCCNC(=O)CCCCCCCCCCCCCCCCC,CCCCCCCCCCCCCCCCCCNC(=O)CCCCCCCCCCCCCCCCC,-7.379591721000001
DKBBLLLWFCDMRD-UHFFFAOYSA-N,,NS(=O)(=O)c1ccc(Nc2n[nH]c(-c3ccc(F)cc3F)n2)cc1,c1cc(ccc1Nc2nc([nH]n2)c3ccc(cc3F)F)S(=O)(=O)N,NS(=O)(=O)C=1C=CC(=CC1)NC2=NNC(=N2)C=3C=CC(=CC3F)F,-5.0362122000000005
DKCPKDPYUFEZCP-UHFFFAOYSA-N,"2,6-di-tert-butylphenol",CC(C)(C)c1cccc(C(C)(C)C)c1O,CC(C)(C)c1cccc(c1O)C(C)(C)C,CC(C)(C)C=1C=CC=C(C1O)C(C)(C)C,-4.713587378
DKEHBAOZVUTYRQ-UHFFFAOYSA-N,,CC(=O)N1CCC(C(=O)Nc2c(C)cc3c(c2C)c2ccccc2n3C(C)C)C1,Cc1cc2c(c(c1NC(=O)C3CCN(C3)C(=O)C)C)c4ccccc4n2C(C)C,CC(C)N1C=2C=CC=CC2C3=C1C=C(C(=C3C)NC(=O)C4CCN(C4)C(=O)C)C,-3.4329736000000004
DKEXFJVMVGETOO-UHFFFAOYSA-N,Glycyl-L-leucine,CC(C)CC(NC(=O)CN)C(=O)O,CC(C)CC(C(=O)O)NC(=O)CN,CC(C)CC(NC(=O)CN)C(=O)O,-0.431
DKEXINVRFGWAKP-UHFFFAOYSA-N,"N-{5-[bis(prop-2-en-1-yl)amino]-2-[(E)-2-(2-chloro-4,6-dinitrophenyl)diazen-1-yl]-4-methoxyphenyl}acetamide",C=CCN(CC=C)c1cc(NC(C)=O)c(/N=N/c2c(Cl)cc([N+](=O)[O-])cc2[N+](=O)[O-])cc1OC,CC(=O)Nc1cc(c(cc1/N=N/c2c(cc(cc2Cl)[N+](=O)[O-])[N+](=O)[O-])OC)N(CC=C)CC=C,COC=1C=C(C(=CC1N(CC=C)CC=C)NC(=O)C)/N=N/C=2C(=CC(=CC2[N+](=O)[O-])[N+](=O)[O-])Cl,-4.388089691
DKFYTSSWOYULKG-UHFFFAOYSA-N,,COc1cc2ncc(C#N)c(Nc3ccc(Oc4ccccc4OC(C)(C)C(=O)NCCCN4CCOCC4)cc3)c2cc1OC,CC(C)(C(=O)NCCCN1CCOCC1)Oc2ccccc2Oc3ccc(cc3)Nc4c5cc(c(cc5ncc4C#N)OC)OC,COC=1C=C2N=CC(=C(C2=CC1OC)NC=3C=CC(=CC3)OC=4C=CC=CC4OC(C)(C)C(=O)NCCCN5CCOCC5)C#N,-6.6575773
DKGAZBPXLWEBPI-UHFFFAOYSA-N,"13-ethyl-3-methoxy-4,6,7,8,9,11,12,13,14,15,16,17-dodecahydro-1H-cyclopenta[a]phenanthren-17-ol (non-preferred name)",CC[C@]12CC[C@@H]3C4=C(CC[C@H]3[C@@H]1CC[C@@H]2O)CC(OC)=CC4,CC[C@]12CC[C@H]3[C@H]([C@@H]1CC[C@@H]2O)CCC4=C3CC=C(C4)OC,CC[C@]12CC[C@H]3[C@H]([C@@H]1CC[C@@H]2O)CCC4=C3CC=C(C4)OC,-4.702756913
DKGVZHXNWOIIJV-UHFFFAOYSA-N,,Cc1cc(Nc2nc(NCc3ccccn3)ncc2Cl)[nH]n1,Cc1cc([nH]n1)Nc2c(cnc(n2)NCc3ccccn3)Cl,CC=1C=C(NN1)NC=2N=C(N=CC2Cl)NCC=3C=CC=CN3,-3.8041002999999995
DKHJWWRYTONYHB-UHFFFAOYSA-N,2-(P-CHLOROPHENOXY)PROPIONIC ACID,CC(Oc1ccc(Cl)cc1)C(=O)O,CC(C(=O)O)Oc1ccc(cc1)Cl,CC(OC=1C=CC(=CC1)Cl)C(=O)O,-2.135
DKKRDMLKVSKFMJ-UHFFFAOYSA-N,4-(Propan-2-Yl)Cyclohexan-1-Ol,CC(C)C1CCC(O)CC1,CC(C)C1CCC(CC1)O,CC(C)C1CCC(CC1)O,-2.0680471380000003
DKMDOBOUUAGJNY-UHFFFAOYSA-N,2-CHLOROVINYL DIETHYL PHOSPHATE,CCOP(=O)(O/C=C/Cl)OCC,CCOP(=O)(OCC)O/C=C/Cl,P(=O)(O/C=C/Cl)(OCC)OCC,-1.3319999999999999
DKMFBWQBDIGMHM-UHFFFAOYSA-N,melperone,CC1CCN(CCCC(=O)c2ccc(F)cc2)CC1,CC1CCN(CC1)CCCC(=O)c2ccc(cc2)F,CC1CCN(CC1)CCCC(=O)C2=CC=C(C=C2)F,-0.943701694
DKMNQSXTWRWSMS-UHFFFAOYSA-N,"Pyrazinamide, N-2-pyrimidinyl-",O=C(Nc1cnccn1)c1ncccn1,c1cnc(nc1)C(=O)Nc2cnccn2,C(=O)(NC=1N=CC=NC1)C2=NC=CC=N2,-0.3036
DKMROQRQHGEIOW-UHFFFAOYSA-N,diethyl_succinate,CCOC(=O)CCC(=O)OCC,CCOC(=O)CCC(=O)OCC,O=C(OCC)CCC(=O)OCC,-0.96
DKNWSYNQZKUICI-UHFFFAOYSA-N,amantadine;  1-aminoadamantane,NC12CC3CC(CC(C3)C1)C2,C1C2CC3CC1CC(C2)(C3)N,NC12CC3CC(C1)CC(C3)C2,-1.85
DKOQGJHPHLTOJR-UHFFFAOYSA-O,cefpirome sulfate,CO/N=C(\C(=O)N[C@@H]1C(=O)N2C(C(=O)O)=C(C[n+]3cccc4c3CCC4)CS[C@H]12)c1csc(N)n1,CO/N=C(/c1csc(n1)N)\C(=O)N[C@H]2[C@@H]3N(C2=O)C(=C(CS3)C[n+]4cccc5c4CCC5)C(=O)O,CO/N=C(/C1=CSC(=N1)N)\C(=O)N[C@H]2[C@@H]3N(C2=O)C(=C(CS3)C[N+]4=CC=CC5=C4CCC5)C(=O)O,-0.787219527
DKOQIDXJOZQKIG-UHFFFAOYSA-N,"Di-D-fructofuranose 1,2':2,1'-dianhydride",OC[C@H]1OC2(COC3(CO2)O[C@H](CO)[C@@H](O)[C@@H]3O)[C@@H](O)[C@@H]1O,C1C2([C@H]([C@@H]([C@H](O2)CO)O)O)OCC3(O1)[C@H]([C@@H]([C@H](O3)CO)O)O,OC[C@H]1OC2(COC3(CO2)O[C@@H]([C@H]([C@@H]3O)O)CO)[C@H]([C@@H]1O)O,-0.0058
DKPMWHFRUGMUKF-UHFFFAOYSA-N,hyocholic_acid,C[C@H](CCC(=O)O)[C@H]1CC[C@H]2[C@@H]3[C@H](O)[C@H](O)[C@@H]4C[C@H](O)CC[C@]4(C)[C@H]3CC[C@@]21C,C[C@H](CCC(=O)O)[C@H]1CC[C@@H]2[C@@]1(CC[C@H]3[C@H]2[C@@H]([C@@H]([C@H]4[C@@]3(CC[C@H](C4)O)C)O)O)C,OC1C2C3C(C(CC3)C(CCC(=O)O)C)(CCC2C4(C(C1O)CC(CC4)O)C)C,-4.35
DKRNQKDMLWIACW-UHFFFAOYSA-N,,Cc1ccc(NC(=O)c2ccnc(N3CCOCC3)c2)cc1Nc1ncnc2ccsc12,Cc1ccc(cc1Nc2c3c(ccs3)ncn2)NC(=O)c4ccnc(c4)N5CCOCC5,CC=1C=CC(=CC1NC=2N=CN=C3C2SC=C3)NC(=O)C=4C=CN=C(C4)N5CCOCC5,-5.0
DKUVFWFOBRMSTF-UHFFFAOYSA-N,,Cc1cccc(Nc2cc(Nc3cccc(C)c3)ncn2)c1,Cc1cccc(c1)Nc2cc(ncn2)Nc3cccc(c3)C,CC=1C=CC=C(C1)NC=2C=C(N=CN2)NC=3C=CC=C(C3)C,-6.469800299999999
DKWHHTWSTXZKDW-UHFFFAOYSA-N,"5,8,11,13,16,19-Hexaoxatricosane",CCCCOCCOCCOCOCCOCCOCCCC,CCCCOCCOCCOCOCCOCCOCCCC,CCCCOCCOCCOCOCCOCCOCCCC,-1.301817888
DKXNBNKWCZZMJT-UHFFFAOYSA-N,Cellobiose,O=CC(O)C(O)C(OC1OC(CO)C(O)C(O)C1O)C(O)CO,C(C1C(C(C(C(O1)OC(C(CO)O)C(C(C=O)O)O)O)O)O)O,C1(C(C(C(C(O1)CO)O)O)O)OC(C(C(C=O)O)O)C(O)CO,-0.4891
DKYWVDODHFEZIM-UHFFFAOYSA-N,Ketoprofen,CC(C(=O)O)c1cccc(C(=O)c2ccccc2)c1,CC(c1cccc(c1)C(=O)c2ccccc2)C(=O)O,O=C(C1=CC=CC=C1)C2=CC=CC(=C2)C(C(=O)O)C,-3.69785
DLANWIJOTJEKNB-UHFFFAOYSA-N,,O=C(NCCSCc1c(F)cccc1Cl)c1cc(F)cc(F)c1,c1cc(c(c(c1)Cl)CSCCNC(=O)c2cc(cc(c2)F)F)F,FC=1C=C(C=C(C1)C(=O)NCCSCC=2C(=CC=CC2Cl)F)F,-5.920818799999999
DLAPIMGBBDILHJ-UHFFFAOYSA-N,FENTHION SULFOXIDE,COP(=S)(OC)Oc1ccc([S+](C)[O-])c(C)c1,Cc1cc(ccc1S(=O)C)OP(=S)(OC)OC,S=P(OC1=CC(=C(C=C1)S(=O)C)C)(OC)OC,-4.898
DLBTYGRPNPUZPU-UHFFFAOYSA-N,,CN1CCN(CC(=O)Nc2ccc3ncnc(Nc4cnc(C(=O)N5CCCCCC5)nc4)c3c2)CC1,CN1CCN(CC1)CC(=O)Nc2ccc3c(c2)c(ncn3)Nc4cnc(nc4)C(=O)N5CCCCCC5,CN1CCN(CC1)CC(=O)NC=2C=CC=3N=CN=C(C3C2)NC=4C=NC(=NC4)C(=O)N5CCCCCC5,-3.4202163999999997
DLDRJTLLEKGZMV-UHFFFAOYSA-N,,CN1CCN(c2ccc(Nc3ncc(Br)c(Nc4ccccc4)n3)cc2)CC1,CN1CCN(CC1)c2ccc(cc2)Nc3ncc(c(n3)Nc4ccccc4)Br,CN1CCN(CC1)C=2C=CC(=CC2)NC=3N=CC(=C(N3)NC=4C=CC=CC4)Br,-5.30103
DLDUHMMCJKKWCW-UHFFFAOYSA-N,,C#CCN(Cc1ccc2nc(C)nc(NCCN(C)C)c2c1)c1ccc(C(=O)NCc2cccnc2)cc1,Cc1nc2ccc(cc2c(n1)NCCN(C)C)CN(CC#C)c3ccc(cc3)C(=O)NCc4cccnc4,CN(C)CCNC=1N=C(N=C2C1C=C(C=C2)CN(CC#C)C=3C=CC(=CC3)C(=O)NCC=4C=CC=NC4)C,-3.4894550000000004
DLGBEGBHXSAQOC-UHFFFAOYSA-N,5-METHYLSALICYLIC ACID,Cc1ccc(O)c(C(=O)O)c1,Cc1ccc(c(c1)C(=O)O)O,CC1=CC(=C(C=C1)O)C(=O)O,-1.8009
DLGOEMSEDOSKAD-UHFFFAOYSA-N,carmustine,O=NN(CCCl)C(=O)NCCCl,C(CCl)NC(=O)N(CCCl)N=O,N(C(=O)NCCCl)(N=O)CCCl,-1.72825
DLHNTLDGYQVSPM-UHFFFAOYSA-N,,CN1CCN(c2ccc(S(=O)(=O)c3ccc(NC(=O)C(C)(O)C(F)(F)F)c(Cl)c3)cc2)CC1,CC(C(=O)Nc1ccc(cc1Cl)S(=O)(=O)c2ccc(cc2)N3CCN(CC3)C)(C(F)(F)F)O,CN1CCN(CC1)C=2C=CC(=CC2)S(=O)(=O)C=3C=CC(=C(C3)Cl)NC(=O)C(C)(O)C(F)(F)F,-4.387216099999999
DLHQZZUEERVIGQ-UHFFFAOYSA-N,"3,7-Dimethyloctan-3-ol",CCC(C)(O)CCCC(C)C,CCC(C)(CCCC(C)C)O,CCC(C)(O)CCCC(C)C,-2.694
DLHWPLFJAJCANU-UHFFFAOYSA-N,"2-Pyrrolidinecarboxamide, 5-oxo-N-phenyl-",O=C1CCC(C(=O)Nc2ccccc2)N1,c1ccc(cc1)NC(=O)C2CCC(=O)N2,O=C1CCC(N1)C(=O)NC=2C=CC=CC2,-1.3279
DLJAQEIAZPTWSB-UHFFFAOYSA-N,"2,2',4,4'-Tetrachlorobenzyl 5-toluene",Cc1cc(Cc2ccc(Cl)cc2Cl)c(Cl)cc1Cl,Cc1cc(c(cc1Cl)Cl)Cc2ccc(cc2Cl)Cl,CC1=C(C=C(C(=C1)CC2=CC=C(C=C2Cl)Cl)Cl)Cl,-7.49
DLJKPYFALUEJCK-UHFFFAOYSA-N,carboprost tromethamine,CCCCC[C@](C)(O)/C=C/[C@H]1[C@H](O)C[C@H](O)[C@@H]1C/C=C\CCCC(=O)O,CCCCC[C@@](C)(/C=C/[C@H]1[C@@H](C[C@@H]([C@@H]1C/C=C\CCCC(=O)O)O)O)O,CCCCC[C@@](C)(/C=C/[C@H]1[C@@H](C[C@@H]([C@@H]1C/C=C\CCCC(=O)O)O)O)O,-0.8148156259999999
DLJZIPVEVJOKHB-UHFFFAOYSA-N,"5-nitro-1,3-dihydro-2H-benzimidazol-2-one",O=c1[nH]c2ccc([N+](=O)[O-])cc2[nH]1,c1cc2c(cc1[N+](=O)[O-])[nH]c(=O)[nH]2,O=[N+]([O-])C=1C=CC=2NC(=O)NC2C1,-3.274043774
DLKBRTKDSDXWNA-UHFFFAOYSA-N,3-methyl-4'-nitrodiphenyl ether,Cc1cccc(Oc2ccc([N+](=O)[O-])cc2)c1,Cc1cccc(c1)Oc2ccc(cc2)[N+](=O)[O-],[N+](=O)(C1=CC=C(C=C1)OC=2C=C(C=CC2)C)[O-],-4.6610000000000005
DLKQHBOKULLWDQ-UHFFFAOYSA-N,1-bromonapthtalene,Brc1cccc2ccccc12,c1ccc2c(c1)cccc2Br,C=1C=CC=2C=CC=CC2C1Br,-4.35
DLKZWVIRKURGIR-UHFFFAOYSA-N,PROXICROMIL ANALOG II;  Deshydroxyproxicromil,CCCc1c2c(cc3c(=O)cc(C(=O)O)oc13)CCCC2,CCCc1c2c(cc3c1oc(cc3=O)C(=O)O)CCCC2,CCCC1=C2C(=CC3=C1OC(=CC3=O)C(=O)O)CCCC2,-1.9
DLNKOYKMWOXYQA-UHFFFAOYSA-N,2-amino-1-phenyl-propan-1-ol,C[C@H](N)[C@@H](O)c1ccccc1,C[C@@H]([C@H](c1ccccc1)O)N,C[C@H](N)[C@@H](O)C=1C=CC=CC1,-0.8786
DLPKPLGMFNWETI-UHFFFAOYSA-N,"Butanedioic acid, (diphenylmethylene)-, 1-ethyl",CCOC(=O)C(CC(=O)O)=C(c1ccccc1)c1ccccc1,CCOC(=O)C(=C(c1ccccc1)c2ccccc2)CC(=O)O,CCOC(=O)C(=C(C=1C=CC=CC1)C=2C=CC=CC2)CC(=O)O,-2.1909
DLQMNSDNQWLFSS-UHFFFAOYSA-N,"2-[(E)-2-(4-chloro-2-nitrophenyl)diazen-1-yl]-3-oxo-N-(2-oxo-2,3-dihydro-1H-1,3-benzodiazol-5-yl)butanamide",CC(=O)C(/N=N/c1ccc(Cl)cc1[N+](=O)[O-])C(=O)Nc1ccc2[nH]c(=O)[nH]c2c1,CC(=O)C(C(=O)Nc1ccc2c(c1)[nH]c(=O)[nH]2)/N=N/c3ccc(cc3[N+](=O)[O-])Cl,CC(=O)C(/N=N/C=1C=CC(=CC1[N+](=O)[O-])Cl)C(=O)NC=2C=CC=3NC(=O)NC3C2,-7.473889939
DLRVVLDZNNYCBX-UHFFFAOYSA-N,MELIBIOSE,OCC1OC(OCC2OC(O)C(O)C(O)C2O)C(O)C(O)C1O,C(C1C(C(C(C(O1)OCC2C(C(C(C(O2)O)O)O)O)O)O)O)O,OCC1OC(C(C(C1O)O)O)OCC2OC(C(C(C2O)O)O)O,0.4656
DLSRIJJGQIAZHW-UHFFFAOYSA-N,,COc1cc2c(Nc3c(Cl)ccc4c3OCO4)ncnc2cc1OCc1ccnc(C#N)c1,COc1cc2c(cc1OCc3ccnc(c3)C#N)ncnc2Nc4c(ccc5c4OCO5)Cl,COC=1C=C2C(=NC=NC2=CC1OCC=3C=CN=C(C3)C#N)NC=4C5=C(C=CC4Cl)OCO5,-4.9913998
DLSUDAGCPOEIQT-UHFFFAOYSA-N,,COc1ccc(C(=O)Nc2cc(NC(=O)c3ccc(N4CCSCC4)cc3)ccc2C)cc1OC,Cc1ccc(cc1NC(=O)c2ccc(c(c2)OC)OC)NC(=O)c3ccc(cc3)N4CCSCC4,COC=1C=CC(=CC1OC)C(=O)NC=2C=C(C=CC2C)NC(=O)C=3C=CC(=CC3)N4CCSCC4,-6.886056599999999
DLTGWXUOKOEXOM-UHFFFAOYSA-N,,CC(C)S(=O)(=O)c1ccc(NC(=O)C(C)(O)C(F)(F)F)c(Cl)c1N1CCOCC1,CC(C)S(=O)(=O)c1ccc(c(c1N2CCOCC2)Cl)NC(=O)C(C)(C(F)(F)F)O,CC(C)S(=O)(=O)C=1C=CC(=C(C1N2CCOCC2)Cl)NC(=O)C(C)(O)C(F)(F)F,-4.1611509
DLURHXYXQYMPLT-UHFFFAOYSA-N,4-methyl-2-nitroaniline,Cc1ccc(N)c([N+](=O)[O-])c1,Cc1ccc(c(c1)[N+](=O)[O-])N,CC=1C=CC(=C(C1)[N+](=O)[O-])N,-1.8600306130000002
DLVAUVPZQHGFJC-UHFFFAOYSA-N,n-(2-benzoyloxyacetyl)-n-methylglycineamide,CN(CC(N)=O)C(=O)COC(=O)c1ccccc1,CN(CC(=O)N)C(=O)COC(=O)c1ccccc1,O=C(N(CC(=O)N)C)COC(=O)C=1C=CC=CC1,-0.919
DLXVLBCCGRQAAA-UHFFFAOYSA-N,"(2,4-dimethylphenyl)phosphonic acid",Cc1ccc(P(=O)(O)O)c(C)c1,Cc1ccc(c(c1)C)P(=O)(O)O,P(=O)(C1=C(C=C(C=C1)C)C)(O)O,-1.0939
DLYGSNKXPRYVCA-UHFFFAOYSA-N,,CC1CN(C(C)CO)C(=O)CCCn2nncc2COC1CN(C)C(=O)OCc1ccccc1,CC1CN(C(=O)CCCn2c(cnn2)COC1CN(C)C(=O)OCc3ccccc3)C(C)CO,CC(CO)N1CC(C(OCC2=CN=NN2CCCC1=O)CN(C)C(=O)OCC3=CC=CC=C3)C,-4.0
DMAKVGLLTBTPRM-UHFFFAOYSA-N,"1,3,3-trimethyl-2-[(1E)-[2-methyl-2-(4-methylphenyl)hydrazin-1-ylidene]methyl]-3H-indol-1-ium methyl sulfate",Cc1ccc(N(C)/N=C/C2=[N+](C)c3ccccc3C2(C)C)cc1,Cc1ccc(cc1)N(C)/N=C/C2=[N+](c3ccccc3C2(C)C)C,CN(/N=C/C1=[N+](C=2C=CC=CC2C1(C)C)C)C=3C=CC(=CC3)C,-1.5026094030000001
DMBHHRLKUKUOEG-UHFFFAOYSA-N,N-phenylaniline; formaldehyde; propan-2-one,c1ccc(Nc2ccccc2)cc1,c1ccc(cc1)Nc2ccccc2,N(C=1C=CC=CC1)C=2C=CC=CC2,-3.637288334
DMDGGSIALPNSEE-UHFFFAOYSA-N,Hydroflumethiazide,NS(=O)(=O)c1cc2c(cc1C(F)(F)F)NCNS2(=O)=O,c1c(c(cc2c1NCNS2(=O)=O)S(=O)(=O)N)C(F)(F)F,S1(=O)(=O)NCNC=2C1=CC(=C(C2)C(F)(F)F)S(=O)(=O)N,-3.04
DMDRBXCDTZRMHZ-UHFFFAOYSA-N,"1,4-bis[(2,4,6-trimethylphenyl)amino]-9,10-dihydroanthracene-9,10-dione",Cc1cc(C)c(Nc2ccc(Nc3c(C)cc(C)cc3C)c3c2C(=O)c2ccccc2C3=O)c(C)c1,Cc1cc(c(c(c1)C)Nc2ccc(c3c2C(=O)c4ccccc4C3=O)Nc5c(cc(cc5C)C)C)C,CC=1C=C(C(=C(C1)C)NC=2C=CC(=C3C2C(=O)C4=C(C=CC=C4)C3=O)NC=5C(=CC(=CC5C)C)C)C,-7.825036523
DMEDOWYXHVUPMO-UHFFFAOYSA-N,"BENZENEACETIC ACID, 4-CARBOXY-",O=C(O)Cc1ccc(C(=O)O)cc1,c1cc(ccc1CC(=O)O)C(=O)O,C(=O)(C=1C=CC(=CC1)CC(=O)O)O,-1.256
DMFUFMVZELKEFI-UHFFFAOYSA-N,Ethyl 2-formamido (4-nitrophenyl) acrylate,CCOC(=O)/C(=C/c1ccc([N+](=O)[O-])cc1)NC=O,CCOC(=O)/C(=C/c1ccc(cc1)[N+](=O)[O-])/NC=O,O=CN/C(=C\C1=CC=C(C=C1)[N+](=O)[O-])/C(=O)OCC,-2.46
DMGCLGMCOSIRSU-UHFFFAOYSA-N,,N#Cc1ccc(-c2cc(C(N)=O)c(NC(N)=O)s2)cc1OCCN1CCCC1,c1cc(c(cc1c2cc(c(s2)NC(=O)N)C(=O)N)OCCN3CCCC3)C#N,NC(=O)NC=1SC(=CC1C(=O)N)C=2C=CC(=C(C2)OCCN3CCCC3)C#N,-3.6777807
DMHAXLGAKQREIL-UHFFFAOYSA-N,O-Acetylacyclovir,CC(=O)OCCOCn1cnc2c(=O)[nH]c(N)nc21,CC(=O)OCCOCn1cnc2c1nc([nH]c2=O)N,CC(=O)OCCOCN1C=NC2=C1N=C(NC2=O)N,-2.7
DMHHINXESLPPMV-UHFFFAOYSA-N,"Propionic acid, 3-propoxy-, methyl ester",CCCOCCC(=O)OC,CCCOCCC(=O)OC,CCCOCCC(=O)OC,-0.6334
DMIQUKRBAXPCBC-UHFFFAOYSA-N,,CCOC(=O)c1ccc2oc(-c3ccc(S(N)(=O)=O)cc3)cc2c1,CCOC(=O)c1ccc2c(c1)cc(o2)c3ccc(cc3)S(=O)(=O)N,CCOC(=O)C=1C=CC=2OC(=CC2C1)C=3C=CC(=CC3)S(=O)(=O)N,-6.2757241
DMJFYUIPAUXLGK-UHFFFAOYSA-N,,Cc1ccc(NC(=O)c2cccc(C#N)c2)cc1NC(=O)c1ccc(NCC(C)(C)CN(C)C)nc1,Cc1ccc(cc1NC(=O)c2ccc(nc2)NCC(C)(C)CN(C)C)NC(=O)c3cccc(c3)C#N,CN(C)CC(C)(C)CNC=1C=CC(=CN1)C(=O)NC=2C=C(C=CC2C)NC(=O)C=3C=CC=C(C3)C#N,-3.3372422
DMLAVOWQYNRWNQ-UHFFFAOYSA-N,di(phenyl)diazene,c1ccc(/N=N/c2ccccc2)cc1,c1ccc(cc1)/N=N/c2ccccc2,N(=N/C=1C=CC=CC1)\C=2C=CC=CC2,-4.45
DMLHJLWUADABON-UHFFFAOYSA-N,"N,N-dimethylnonanamide",CCCCCCCCC(=O)N(C)C,CCCCCCCCC(=O)N(C)C,CCCCCCCCC(=O)N(C)C,-2.14402478
DMLLHAJXQMUYLW-UHFFFAOYSA-N,,CN(c1ccc(NC(=O)C(C)(O)C(F)(F)F)c(Cl)c1)S(=O)(=O)c1cccc(Cl)c1,CC(C(=O)Nc1ccc(cc1Cl)N(C)S(=O)(=O)c2cccc(c2)Cl)(C(F)(F)F)O,CN(C=1C=CC(=C(C1)Cl)NC(=O)C(C)(O)C(F)(F)F)S(=O)(=O)C=2C=CC=C(C2)Cl,-4.60206
DMMXQRSFLVFTNK-UHFFFAOYSA-N,,Oc1ccc(-c2ccc(C3(O)CN4CCC3CC4)cc2)cc1,c1cc(ccc1c2ccc(cc2)O)C3(CN4CCC3CC4)O,OC=1C=CC(=CC1)C=2C=CC(=CC2)C3(CN4CCC3CC4)O,-3.3565473
DMOBGFAKTSXOHG-UHFFFAOYSA-N,"2,8-DICHLORODIBENZOFURAN",Clc1ccc2c(c1)oc1c(Cl)cccc12,c1cc2c3ccc(cc3oc2c(c1)Cl)Cl,O1C2=C(C=CC(=C2)Cl)C3=C1C(=CC=C3)Cl,-7.2139999999999995
DMOQWSZZBUFQLD-UHFFFAOYSA-N,,COc1cc2c(Nc3cnc(NC(=O)c4ccc(F)c(Cl)c4)nc3)ncnc2cc1OCCCN1CC=CCC1,COc1cc2c(cc1OCCCN3CCC=CC3)ncnc2Nc4cnc(nc4)NC(=O)c5ccc(c(c5)Cl)F,COC=1C=C2C(=NC=NC2=CC1OCCCN3CCC=CC3)NC=4C=NC(=NC4)NC(=O)C=5C=CC(=C(C5)Cl)F,-4.9586073
DMPCIFUBLRRSJX-UHFFFAOYSA-N,,COc1cc2c(Nc3ncc(CC(=O)Nc4cccc(F)c4)s3)ncnc2cc1OCC(O)CN1CCCCC1,COc1cc2c(cc1OCC(CN3CCCCC3)O)ncnc2Nc4ncc(s4)CC(=O)Nc5cccc(c5)F,COC=1C=C2C(=NC=NC2=CC1OCC(O)CN3CCCCC3)NC4=NC=C(S4)CC(=O)NC=5C=CC=C(C5)F,-4.5214335
DMPXHEMGDYKSFL-UHFFFAOYSA-N,2-[(E)-2-(2-methoxy-4-{3-methoxy-4-[(E)-2-[2-oxo-1-(phenylcarbamoyl)propyl]diazen-1-yl]phenyl}phenyl)diazen-1-yl]-3-oxo-N-phenylbutanamide,COc1cc(-c2ccc(/N=N/C(C(C)=O)C(=O)Nc3ccccc3)c(OC)c2)ccc1/N=N/C(C(C)=O)C(=O)Nc1ccccc1,CC(=O)C(C(=O)Nc1ccccc1)/N=N/c2ccc(cc2OC)c3ccc(c(c3)OC)/N=N/C(C(=O)C)C(=O)Nc4ccccc4,COC=1C=C(C=CC1/N=N/C(C(=O)C)C(=O)NC=2C=CC=CC2)C=3C=CC(=C(C3)OC)/N=N/C(C(=O)C)C(=O)NC=4C=CC=CC4,-8.616883348
DMQQXDPCRUGSQB-UHFFFAOYSA-N,azanium; 2-[3-[bis(2-oxido-2-oxoethyl)amino]propyl-(2-oxido-2-oxoethyl)amino]acetate; iron(+3) cation,O=C(O)CN(CCCN(CC(=O)O)CC(=O)O)CC(=O)O,C(CN(CC(=O)O)CC(=O)O)CN(CC(=O)O)CC(=O)O,OC(=O)CN(CCCN(CC(=O)O)CC(=O)O)CC(=O)O,-0.682
DMQYPVOQAARSNF-UHFFFAOYSA-N,"Glycerol, propoxylated, esters with acrylic acid",C=CC(=O)OCCCOCC(COCCCOC(=O)C=C)OCCCOC(=O)C=C,C=CC(=O)OCCCOCC(COCCCOC(=O)C=C)OCCCOC(=O)C=C,C=CC(=O)OCCCOCC(COCCCOC(=O)C=C)OCCCOC(=O)C=C,-2.552873641
DMRUHNJUTAJPSU-UHFFFAOYSA-N,"O,O,O-Tris(4-nitrophenyl) thiophosphate",O=[N+]([O-])c1ccc(OP(=S)(Oc2ccc([N+](=O)[O-])cc2)Oc2ccc([N+](=O)[O-])cc2)cc1,c1cc(ccc1[N+](=O)[O-])OP(=S)(Oc2ccc(cc2)[N+](=O)[O-])Oc3ccc(cc3)[N+](=O)[O-],O=[N+]([O-])C=1C=CC(=CC1)OP(=S)(OC=2C=CC(=CC2)[N+](=O)[O-])OC=3C=CC(=CC3)[N+](=O)[O-],-5.6789170989999995
DMSHPSDPNJMGMT-UHFFFAOYSA-N,,O=C(CN1CCOC1=O)Nc1ccc2c(c1)-c1ccccc1S2(=O)=O,c1ccc2c(c1)-c3cc(ccc3S2(=O)=O)NC(=O)CN4CCOC4=O,O=C(CN1CCOC1=O)NC=2C=CC3=C(C2)C=4C=CC=CC4S3(=O)=O,-5.6197888
DMSMPAJRVJJAGA-UHFFFAOYSA-N,"2,3-dihydro-1,2-benzothiazol-3-one",O=c1[nH]sc2ccccc12,c1ccc2c(c1)c(=O)[nH]s2,O=C1NSC2=C1C=CC=C2,-2.018338155
DMULVCHRPCFFGV-UHFFFAOYSA-N,,CN(C)CCc1c[nH]c2ccccc12,CN(C)CCc1c[nH]c2c1cccc2,N1C=C(C2=C1C=CC=C2)CCN(C)C,0.18100000000000002
DMWBVWVMUKIXDR-UHFFFAOYSA-N,,N#Cc1ccccc1S(=O)(=O)NC(=O)c1ccc(-c2cc3ccccc3o2)cc1,c1ccc2c(c1)cc(o2)c3ccc(cc3)C(=O)NS(=O)(=O)c4ccccc4C#N,O=C(NS(=O)(=O)C=1C=CC=CC1C#N)C=2C=CC(=CC2)C3=CC=4C=CC=CC4O3,-5.8860566
DMWTYTYIVZFFSB-UHFFFAOYSA-N,,Cn1cncc1-c1ccnc(Nc2ccc(S(=O)(=O)NCc3ccco3)cc2)n1,Cn1cncc1c2ccnc(n2)Nc3ccc(cc3)S(=O)(=O)NCc4ccco4,CN1C=NC=C1C=2C=CN=C(N2)NC=3C=CC(=CC3)S(=O)(=O)NCC4=CC=CO4,-5.39794
DMWVGXGXHPOEPT-UHFFFAOYSA-N,,COc1cc2ncnc(Nc3ccc(Oc4ccccc4)cc3)c2cc1OC,COc1cc2c(cc1OC)ncnc2Nc3ccc(cc3)Oc4ccccc4,COC=1C=C2N=CN=C(C2=CC1OC)NC=3C=CC(=CC3)OC=4C=CC=CC4,-6.455932
DMXUBGVVJLVCPB-UHFFFAOYSA-N,"(2,4,6-trimethylcyclohex-3-en-1-yl)methanol",CC1=CC(C)C(CO)C(C)C1,CC1CC(=CC(C1CO)C)C,CC1CC(=CC(C1CO)C)C,-2.371098697
DMYHGDXADUDKCQ-UHFFFAOYSA-N,FENAZAQUIN,CC(C)(C)c1ccc(CCOc2ncnc3ccccc23)cc1,CC(C)(C)c1ccc(cc1)CCOc2c3ccccc3ncn2,CC(C)(C)C=1C=CC(=CC1)CCOC=2N=CN=C3C2C=CC=C3,-6.14395
DNAHPDZHSFNNRU-UHFFFAOYSA-N,[[3-[[[(2-CHLOROETHYL) NITROSOAMINO] CARBONYL] A,O=NN(CCCl)C(=O)NCCC(SCC(=O)O)n1cc(F)c(=O)[nH]c1=O,c1c(c(=O)[nH]c(=O)n1C(CCNC(=O)N(CCCl)N=O)SCC(=O)O)F,S(CC(=O)O)C(CCNC(=O)N(CCCl)N=O)N1C=C(C(=O)NC1=O)F,-1.5190000000000001
DNBMRENNZIQFFS-UHFFFAOYSA-N,"1H-Purin-8-amine, N-methyl-",CNc1nc2cncnc2[nH]1,CNc1[nH]c2c(n1)cncn2,CNC1=NC2=CN=CN=C2N1,-1.827
DNCRRYGJLSHYCN-UHFFFAOYSA-N,,CC(O)(C(=O)Nc1ccc(S(=O)(=O)N2CCC(O)C2)c(Cl)c1Cl)C(F)(F)F,CC(C(=O)Nc1ccc(c(c1Cl)Cl)S(=O)(=O)N2CCC(C2)O)(C(F)(F)F)O,CC(O)(C(=O)NC=1C=CC(=C(C1Cl)Cl)S(=O)(=O)N2CCC(C2)O)C(F)(F)F,-3.154902
DNCUFKVKCWLSNR-UHFFFAOYSA-N,,COc1cc2ncnc(Nc3ccc(F)c(Cl)c3)c2cc1OCCCN1CCCCC1CO,COc1cc2c(cc1OCCCN3CCCCC3CO)c(ncn2)Nc4ccc(c(c4)Cl)F,COC=1C=C2N=CN=C(C2=CC1OCCCN3CCCCC3CO)NC=4C=CC(=C(C4)Cl)F,-3.7837398