inchikey,Name,SMILES_stand,SMILES,kekSmiles,logS
CQIFRYCXVZFQRT-UHFFFAOYSA-N,,Cc1ccc(-n2cc(NC(N)=O)c(C(N)=O)c2)cc1,Cc1ccc(cc1)n2cc(c(c2)NC(=O)N)C(=O)N,CC=1C=CC(=CC1)N2C=C(C(=C2)C(=O)N)NC(=O)N,-6.853872
CQKCHORBMPHJNB-UHFFFAOYSA-N,,COc1cc2c(Nc3ccc(F)c(Cl)c3)ncnc2cc1OCCCN(C)S(C)(=O)=O,CN(CCCOc1cc2c(cc1OC)c(ncn2)Nc3ccc(c(c3)Cl)F)S(=O)(=O)C,COC=1C=C2C(=NC=NC2=CC1OCCCN(C)S(=O)(=O)C)NC=3C=CC(=C(C3)Cl)F,-5.920818799999999
CQMYCPZZIPXILQ-UHFFFAOYSA-N,DIETHYL AZELATE,CCOC(=O)CCCCCCCC(=O)OCC,CCOC(=O)CCCCCCCC(=O)OCC,CCOC(=O)CCCCCCCC(=O)OCC,-2.99
CQTFTYCUSOGOHR-UHFFFAOYSA-N,,CCCC(O)C(C)(C)NCCOc1cc2ncnc(Nc3ccc(NC(=O)c4ccccc4)cc3)c2cc1OC,CCCC(C(C)(C)NCCOc1cc2c(cc1OC)c(ncn2)Nc3ccc(cc3)NC(=O)c4ccccc4)O,CCCC(O)C(C)(C)NCCOC=1C=C2N=CN=C(C2=CC1OC)NC=3C=CC(=CC3)NC(=O)C=4C=CC=CC4,-4.5100415
CQTRXSKPPULHND-UHFFFAOYSA-N,,N#Cc1cccc(C(=O)NCCCOCc2c(Cl)cccc2Cl)c1,c1cc(cc(c1)C(=O)NCCCOCc2c(cccc2Cl)Cl)C#N,ClC=1C=CC=C(C1COCCCNC(=O)C=2C=CC=C(C2)C#N)Cl,-4.236572
CQUKERKMABQALM-UHFFFAOYSA-N,,CNC(=O)CNC(=O)C(C)(C)Oc1ccccc1Oc1ccc(Nc2c(C#N)cnc3cc(NC)c(OC)cc23)cc1,CC(C)(C(=O)NCC(=O)NC)Oc1ccccc1Oc2ccc(cc2)Nc3c4cc(c(cc4ncc3C#N)NC)OC,CNC(=O)CNC(=O)C(C)(C)OC=1C=CC=CC1OC=2C=CC(=CC2)NC=3C(=CN=C4C3C=C(C(=C4)NC)OC)C#N,-4.8860566
CQVZMWKLFBXYDF-UHFFFAOYSA-N,,COCCOc1ccc(-c2cc(C(N)=O)c(NC(N)=O)s2)cc1,COCCOc1ccc(cc1)c2cc(c(s2)NC(=O)N)C(=O)N,COCCOC=1C=CC(=CC1)C2=CC(=C(S2)NC(=O)N)C(=O)N,-4.721246400000001
CQWOVBUUCZQIOK-UHFFFAOYSA-N,heptyl 2-(6-methoxynaphthalen-2-yl)propanoate,CCCCCCCOC(=O)C(C)c1ccc2cc(OC)ccc2c1,CCCCCCCOC(=O)C(C)c1ccc2cc(ccc2c1)OC,CCCCCCCOC(=O)C(C)C1=CC=C2C=C(C=CC2=C1)OC,-7.1185
CQWXKASOCUAEOW-UHFFFAOYSA-N,2-[2-(carboxymethoxy)ethoxy]acetic acid,O=C(O)COCCOCC(=O)O,C(COCC(=O)O)OCC(=O)O,OC(=O)COCCOCC(=O)O,0.670912514
CQXADFVORZEARL-UHFFFAOYSA-N,,C1COC(NC(C2CC2)C2CC2)=N1,C1CC1C(C2CC2)NC3=NCCO3,O1C(=NCC1)NC(C2CC2)C3CC3,0.374
CQXXIQUEFGDYJO-UHFFFAOYSA-N,,CC(C)Cc1ccc(-c2cc(N)c(C(N)=O)s2)cc1,CC(C)Cc1ccc(cc1)c2cc(c(s2)C(=O)N)N,CC(C)CC=1C=CC(=CC1)C2=CC(=C(S2)C(=O)N)N,-6.2596373
CQZQRUAPFCYPOA-UHFFFAOYSA-N,"BENZOIC ACID, 2-HYDROXY-, 2-[(2-HYDROXYETHYL)MET",CN(CCO)C(=O)COC(=O)c1ccccc1O,CN(CCO)C(=O)COC(=O)c1ccccc1O,C=1(C(=CC=CC1)O)C(=O)OCC(=O)N(CCO)C,-1.604
CRFOTIFBMBVZOO-UHFFFAOYSA-N,"NAPROXEN, DERIVAT 3F",COc1ccc2cc(C(C)C(=O)OCCCCOC(=O)CCCN3CCN(C)CC3)ccc2c1,CC(c1ccc2cc(ccc2c1)OC)C(=O)OCCCCOC(=O)CCCN3CCN(CC3)C,COC1=CC2=CC=C(C=C2C=C1)C(C)C(=O)OCCCCOC(=O)CCCN3CCN(CC3)C,-1.301
CRGNBCADENCADB-UHFFFAOYSA-N,,Cc1cc(NC(N)=O)ccc1Br,Cc1cc(ccc1Br)NC(=O)N,BrC1=C(C=C(C=C1)NC(=O)N)C,-3.0
CRIGTVCBMUKRSL-UHFFFAOYSA-N,"(2E)-1-(2,6,6-trimethylcyclohex-2-en-1-yl)but-2-en-1-one",C/C=C/C(=O)C1C(C)=CCCC1(C)C,C/C=C/C(=O)C1C(=CCCC1(C)C)C,C/C=C/C(=O)C1C(=CCCC1(C)C)C,-3.137927883
CRIZPXKICGBNKG-UHFFFAOYSA-N,"2H-Purin-2-one, 1,3-dihydro-",O=c1ncc2nc[nH]c2[nH]1,c1c2c([nH]cn2)[nH]c(=O)n1,O=C1NC=2N=CNC2C=N1,-1.714
CRJIYMRJTJWVLU-UHFFFAOYSA-N,"2,4,4-trimethylpentan-2-yl 2,2,3,5-tetramethylhexaneperoxoate 2,4,4-trimethylpentan-2-yl 2,2-diethylhexaneperoxoate 2,4,4-trimethylpentan-2-yl 2,2-dimethyloctaneperoxoate 2,4,4-trimethylpentan-2-yl 2,4-dimethyl-2-(propan-2-yl)pentaneperoxoate 2,4,4-trimethylpentan-2-yl 2-ethyl-2,5-dimethylhexaneperoxoate",CC(C)(C)CCCCC1(C(=O)OC(C)(C)CC(C)(C)C)OO1,CC(C)(C)CCCCC1(OO1)C(=O)OC(C)(C)CC(C)(C)C,CC(C)(C)CCCCC1(OO1)C(=O)OC(C)(C)CC(C)(C)C,-6.97111721
CRLNRRULCQXUML-UHFFFAOYSA-N,"1,4-Dimethyl-2-propyl-1,2,3,4-tetrahydro-2,4a,9-triazaanthracen-10-one",CCCN1CC(C)n2c(nc3ccccc3c2=O)C1C,CCCN1CC(n2c(=O)c3ccccc3nc2C1C)C,CCCN1CC(N2C(=O)C3=C(C=CC=C3)N=C2C1C)C,-2.24
CRNDRGOFRZSZHP-UHFFFAOYSA-N,,C#CCN(Cc1ccc2nc(CO)nc(O)c2c1)c1ccc(C(=O)NCc2cccc([N+](=O)[O-])c2)cc1,C#CCN(Cc1ccc2c(c1)c(nc(n2)CO)O)c3ccc(cc3)C(=O)NCc4cccc(c4)[N+](=O)[O-],OCC=1N=C(C=2C=C(C=CC2N1)CN(CC#C)C=3C=CC(=CC3)C(=O)NCC=4C=CC=C(C4)[N+](=O)[O-])O,-6.380906700000001
CRPAMTZHVXHTKH-UHFFFAOYSA-N,"1H-2-Benzopyran-3-carboxylic acid, 1-oxo-",O=C(O)c1cc2ccccc2c(=O)o1,c1ccc2c(c1)cc(oc2=O)C(=O)O,C=1(OC(=O)C2=C(C1)C=CC=C2)C(=O)O,-2.428
CRPHWKXKBBBHLU-UHFFFAOYSA-N,"D-xylo-pentodialdo-1,4-furanose, 1,2-O-(2,2,2-tr",O=CC1OC2OC(C(Cl)(Cl)Cl)OC2C1O,C(=O)C1C(C2C(O1)OC(O2)C(Cl)(Cl)Cl)O,O=CC1OC2OC(OC2C1O)C(Cl)(Cl)Cl,-2.045
CRPUJAZIXJMDBK-UHFFFAOYSA-N,"camphene;  2,2-dimethyl-3-methylenenorbornane;  2,2-dimethyl-3-methylenebicyclo[2.2.1]heptane",C=C1C2CCC(C2)C1(C)C,CC1(C2CCC(C2)C1=C)C,CC1(C2CCC(C2)C1=C)C,-4.471520214
CRQQGFGUEAVUIL-UHFFFAOYSA-N,tetrachloroisophthalonitrile;  chlorothalonil,N#Cc1c(Cl)c(Cl)c(Cl)c(C#N)c1Cl,C(#N)c1c(c(c(c(c1Cl)Cl)Cl)C#N)Cl,N#CC1=C(C(=C(C(=C1Cl)C#N)Cl)Cl)Cl,-5.6433
CRRLDLPBQWRVGN-UHFFFAOYSA-N,"N,N'-(3,3'-dimethylbiphenyl-4,4'-diyl)bis(3-oxobutanamide)",CC(=O)CC(=O)Nc1ccc(-c2ccc(NC(=O)CC(C)=O)c(C)c2)cc1C,Cc1cc(ccc1NC(=O)CC(=O)C)c2ccc(c(c2)C)NC(=O)CC(=O)C,CC(=O)CC(=O)NC=1C=CC(=CC1C)C=2C=CC(=C(C2)C)NC(=O)CC(=O)C,-5.325009117
CRROIRSDBVLXGH-UHFFFAOYSA-N,7-(ETHOXYCARBOXYMETHYL)THEOPHYLLINE;  7-(Ethoxycarbonyloxymethyl)theophylline,CCOC(=O)OCn1cnc2c1c(=O)n(C)c(=O)n2C,CCOC(=O)OCn1cnc2c1c(=O)n(c(=O)n2C)C,CCOC(=O)OCN1C=NC2=C1C(=O)N(C(=O)N2C)C,-1.86
CRTBNFJSWPZSQM-UHFFFAOYSA-N,"DL-Norleucine, N-(aminocarbonyl)-",CCCCC(NC(N)=O)C(=O)O,CCCCC(C(=O)O)NC(=O)N,CCCCC(NC(=O)N)C(=O)O,-2.1595
CRUJABKNEHHCFS-UHFFFAOYSA-N,,CN1CCC(Oc2cccc3ncnc(Nc4ccc5[nH]ccc5c4F)c23)CC1,CN1CCC(CC1)Oc2cccc3c2c(ncn3)Nc4ccc5c(c4F)cc[nH]5,CN1CCC(CC1)OC=2C=CC=C3C2C(=NC=N3)NC=4C=CC=5NC=CC5C4F,-5.79588
CRVLZINCEGXTBW-UHFFFAOYSA-N,,Cc1ccccc1NC(=O)Nc1ccc(CC(=O)Nc2ccc(OCCCN3CCCC3)c(OCCCC(=O)O)c2)cc1,Cc1ccccc1NC(=O)Nc2ccc(cc2)CC(=O)Nc3ccc(c(c3)OCCCC(=O)O)OCCCN4CCCC4,CC=1C=CC=CC1NC(=O)NC=2C=CC(=CC2)CC(=O)NC=3C=CC(=C(C3)OCCCC(=O)O)OCCCN4CCCC4,-4.6777807000000005
CRWDRBVXGBUWDS-UHFFFAOYSA-N,Climbazole [BAN:INN],CC(C)(C)C(=O)C(Oc1ccc(Cl)cc1)n1cccn1,CC(C)(C)C(=O)C(n1cccn1)Oc2ccc(cc2)Cl,C(N1N=CC=C1)(C(=O)C(C)(C)C)OC=2C=CC(=CC2)Cl,-4.726
CRZGCEYTNMJWPK-UHFFFAOYSA-N,,O=C(O)c1ccccc1Cn1nnc(-c2cccc(OCc3ccc4ccccc4n3)c2)n1,c1ccc2c(c1)ccc(n2)COc3cccc(c3)c4nnn(n4)Cc5ccccc5C(=O)O,OC(=O)C=1C=CC=CC1CN2N=NC(=N2)C=3C=CC=C(C3)OCC=4C=CC=5C=CC=CC5N4,-5.1487417
CRZQGDNQQAALAY-UHFFFAOYSA-N,Methyl 2-phenylacetate,COC(=O)Cc1ccccc1,COC(=O)Cc1ccccc1,COC(=O)CC=1C=CC=CC1,-2.211200862
CSAHSZPPHOXJAP-UHFFFAOYSA-N,,Cn1c(-c2cscn2)nc2ccccc21,Cn1c2ccccc2nc1c3cscn3,S1C=C(N=C1)C=2N(C=3C(N2)=CC=CC3)C,0.7329
CSENIGYHSYHYPF-UHFFFAOYSA-N,,COc1cc2ncnc(NC(=O)Nc3c(Cl)cccc3Cl)c2cc1OCCCN1CCOCC1,COc1cc2c(cc1OCCCN3CCOCC3)c(ncn2)NC(=O)Nc4c(cccc4Cl)Cl,COC=1C=C2N=CN=C(C2=CC1OCCCN3CCOCC3)NC(=O)NC=4C(=CC=CC4Cl)Cl,-6.2146702000000005
CSFBSPVYYWTZQX-UHFFFAOYSA-N,thymol,CC1CCC(C(=O)C2CCC(CC(=O)O)N2C)CC1,CC1CCC(CC1)C(=O)C2CCC(N2C)CC(=O)O,CC1CCC(CC1)C(=O)C2CCC(N2C)CC(=O)O,-2.186
CSFFTSRVLXCIIG-UHFFFAOYSA-N,"4-[(1-methoxy-1-oxo-3-phenylpropan-2-yl)amino]-4-oxo-3-[(2,2,2-trifluoroacetyl)amino]butanoic acid",COC(=O)C(Cc1ccccc1)NC(=O)C(CC(=O)O)NC(=O)C(F)(F)F,COC(=O)C(Cc1ccccc1)NC(=O)C(CC(=O)O)NC(=O)C(F)(F)F,COC(=O)C(CC1=CC=CC=C1)NC(=O)C(CC(=O)O)NC(=O)C(F)(F)F,-2.658
CSHWQDPOILHKBI-UHFFFAOYSA-N,Perylene,c1cc2cccc3c4cccc5cccc(c(c1)c23)c54,c1cc2cccc3c2c(c1)c4cccc5c4c3ccc5,C=1C=C2C=CC=C3C2=C(C1)C4=CC=CC=5C4=C3C=CC5,-8.79995
CSJAXRKDCCWCSJ-UHFFFAOYSA-N,"4(1H)-Quinolinone, 1-methyl-",Cn1ccc(=O)c2ccccc21,Cn1ccc(=O)c2c1cccc2,CN1C=CC(=O)C2=C1C=CC=C2,-0.9818
CSKKAINPUYTTRW-UHFFFAOYSA-N,1-[({[(tetradecyloxy)carbonyl]peroxy}carbonyl)oxy]tetradecane,CCCCCCCCCCCCCCOC(=O)OOC(=O)OCCCCCCCCCCCCCC,CCCCCCCCCCCCCCOC(=O)OOC(=O)OCCCCCCCCCCCCCC,CCCCCCCCCCCCCCOC(=O)OOC(=O)OCCCCCCCCCCCCCC,-4.349900579
CSKNSYBAZOQPLR-UHFFFAOYSA-N,BENZENESULFONYL CHLORIDE,O=S(=O)(Cl)c1ccccc1,c1ccc(cc1)S(=O)(=O)Cl,ClS(=O)(=O)C=1C=CC=CC1,-1.88516094
CSMFSDCPJHNZRY-UHFFFAOYSA-N,Sodium decyl sulfate,CCCCCCCCCCOS(=O)(=O)O,CCCCCCCCCCOS(=O)(=O)O,CCCCCCCCCCOS(=O)(=O)O,0.10299402699999999
CSMSWYXPXRIHBY-UHFFFAOYSA-N,"2H-1-Benzopyran-2-one, 4-bromo-",O=c1cc(Br)c2ccccc2o1,c1ccc2c(c1)c(cc(=O)o2)Br,C1=C(C2=CC=CC=C2OC1=O)Br,-1.65315
CSPISCDWKAVDAB-UHFFFAOYSA-N,1-(4-chloronaphthalen-1-yl)-2-piperidin-1-ylethanol,OC(CN1CCCCC1)c1ccc(Cl)c2ccccc12,c1ccc2c(c1)c(ccc2Cl)C(CN3CCCCC3)O,OC(CN1CCCCC1)C2=C3C=CC=CC3=C(C=C2)Cl,-1.5475
CSPKUDFLBAXKNX-UHFFFAOYSA-N,,COc1cc2ncnc(Nc3cccc(Cl)c3)c2cc1OCC1CCN(C)CC1,CN1CCC(CC1)COc2cc3c(cc2OC)ncnc3Nc4cccc(c4)Cl,COC=1C=C2N=CN=C(C2=CC1OCC3CCN(CC3)C)NC=4C=CC=C(C4)Cl,-4.0132283
CSPPKDPQLUUTND-UHFFFAOYSA-N,Sethoxydim,CCC/C(=N\OCC)C1=C(O)CC(CC(C)SCC)CC1=O,CCC/C(=N\OCC)/C1=C(CC(CC1=O)CC(C)SCC)O,C1(=C(CC(CC1=O)CC(SCC)C)O)/C(=N/OCC)/CCC,-4.117
CSRFYVKSQFVNST-UHFFFAOYSA-N,"Propanoic acid, 2-hydroxy-2-methyl-, propyl este",CCCOC(=O)C(C)(C)O,CCCOC(=O)C(C)(C)O,C(=O)(C(O)(C)C)OCCC,-0.1649
CSRHUAMWMPNCLJ-UHFFFAOYSA-N,,COc1ccc(Br)c(Nc2ncnc3cc(OCCN4CCCC4C(=O)N(C)C)cc(OC4CCOCC4)c23)c1,CN(C)C(=O)C1CCCN1CCOc2cc3c(c(c2)OC4CCOCC4)c(ncn3)Nc5cc(ccc5Br)OC,COC=1C=CC(=C(C1)NC=2N=CN=C3C2C(=CC(=C3)OCCN4CCCC4C(=O)N(C)C)OC5CCOCC5)Br,-3.4685211000000002
CSRINNLYWLVQQE-UHFFFAOYSA-N,4-[(10-Methyl-9-anthryl)methyl]morpholine,Cc1c2ccccc2c(CN2CCOCC2)c2ccccc12,Cc1c2ccccc2c(c3c1cccc3)CN4CCOCC4,CC1=C2C=CC=CC2=C(C3=C1C=CC=C3)CN4CCOCC4,-4.398
CSWBSLXBXRFNST-UHFFFAOYSA-N,,C/C=C/C=C/CCCCCCCO,C/C=C/C=C/CCCCCCCO,OCCCCCCC/C=C/C=C/C,-3.8539999999999996
CSWIKHNSBZVWNQ-UHFFFAOYSA-N,,CCOCCN(C(=O)CCl)C(=C(C)C)c1ccccc1,CCOCCN(C(=O)CCl)C(=C(C)C)c1ccccc1,ClCC(=O)N(C(=C(C)C)C1=CC=CC=C1)CCOCC,-2.8689999999999998
CSWQJKHBMACTGB-UHFFFAOYSA-N,,N=C(N)c1ccc2cc(C(=O)Nc3ccc(CN)cc3)cc(Nc3ncccn3)c2c1,c1cnc(nc1)Nc2cc(cc3c2cc(cc3)C(=N)N)C(=O)Nc4ccc(cc4)CN,NCC=1C=CC(=CC1)NC(=O)C=2C=C(C=3C=C(C=CC3C2)C(=N)N)NC=4N=CC=CN4,-3.8239087
CSWRAOHDICNMPU-UHFFFAOYSA-N,KNI-727,Cc1cccc(C)c1OCC(=O)NC(Cc1ccccc1)C(O)C(=O)N1CSC(C)(C)C1C(=O)NC(C)(C)C,Cc1cccc(c1OCC(=O)NC(Cc2ccccc2)C(C(=O)N3CSC(C3C(=O)NC(C)(C)C)(C)C)O)C,CC1=C(C(=CC=C1)C)OCC(=O)NC(CC2=CC=CC=C2)C(O)C(=O)N3CSC(C3C(=O)NC(C)(C)C)(C)C,-5.01
CTCKUDTVPBDAHJ-UHFFFAOYSA-N,ethyl 1-(4-tolylsulfonyl)cyclobutane-1-carboxylate; 1-(4-methylphenylsulfonyl)cyclobutanecarboxylic acid ethyl ester,CCOC(=O)C1(S(=O)(=O)c2ccc(C)cc2)CCC1,CCOC(=O)C1(CCC1)S(=O)(=O)c2ccc(cc2)C,S(=O)(=O)(C1(CCC1)C(=O)OCC)C2=CC=C(C=C2)C,-2.9594
CTDMCLBHDKWVBZ-UHFFFAOYSA-N,,CN(C)C(=N)c1ccc(C(=O)N2CCN(S(=O)(=O)c3ccc4cc(Br)ccc4c3)CC2)cc1,CN(C)C(=N)c1ccc(cc1)C(=O)N2CCN(CC2)S(=O)(=O)c3ccc4cc(ccc4c3)Br,CN(C)C(=N)C=1C=CC(=CC1)C(=O)N2CCN(CC2)S(=O)(=O)C=3C=CC=4C=C(C=CC4C3)Br,-2.8814807
CTIUQBNPCVDGPM-UHFFFAOYSA-N,,O=CN(O)C(CCCc1ncccn1)CS(=O)(=O)N1CCN(c2ccc(C#Cc3cccnc3)cn2)CC1,c1cc(cnc1)C#Cc2ccc(nc2)N3CCN(CC3)S(=O)(=O)CC(CCCc4ncccn4)N(C=O)O,ON(C=O)C(CCCC=1N=CC=CN1)CS(=O)(=O)N2CCN(CC2)C=3C=CC(=CN3)C#CC=4C=CC=NC4,-5.1752235
CTJBHIROCMPUKL-UHFFFAOYSA-N,Butoxycarboxim,CNC(=O)O/N=C(\C)C(C)S(C)(=O)=O,CC(/C(=N/OC(=O)NC)/C)S(=O)(=O)C,S(=O)(=O)(C(/C(=N/OC(=O)NC)/C)C)C,-0.0267
CTJMNBROBOZHAP-UHFFFAOYSA-N,7-(3-aminoazetidin-1-yl)-1-cyclopropyl-6-fluoro-4-oxoquinoline-3-carboxylic acid,NC1CN(c2cc3c(cc2F)c(=O)c(C(=O)O)cn3C2CC2)C1,c1c2c(cc(c1F)N3CC(C3)N)n(cc(c2=O)C(=O)O)C4CC4,NC1CN(C1)C2=CC3=C(C=C2F)C(=O)C(=CN3C4CC4)C(=O)O,-5.324
CTKMEMHHNDPYMG-UHFFFAOYSA-N,"Pyrimido[5,4-d]pyrimidine-2,4,6,8(3H,7H)-tetrone",Cn1c(=O)[nH]c2c(=O)[nH]c(=O)[nH]c2c1=O,Cn1c(=O)c2c(c(=O)[nH]c(=O)[nH]2)[nH]c1=O,O=C1N(C(=O)NC2=C1NC(=O)NC2=O)C,-4.624
CTLDWNVYXLHMAS-UHFFFAOYSA-N,"2,4,4,7-tetramethyloct-6-en-3-one",CC(C)=CCC(C)(C)C(=O)C(C)C,CC(C)C(=O)C(C)(C)CC=C(C)C,CC(C)C(=O)C(C)(C)CC=C(C)C,-3.489107932
CTLDYWAOQAUFBX-UHFFFAOYSA-N,,COc1ccccc1Oc1ccc(Nc2c(C#N)cnc3ccc(NC(=O)CCN4CCOCC4)cc23)cc1,COc1ccccc1Oc2ccc(cc2)Nc3c4cc(ccc4ncc3C#N)NC(=O)CCN5CCOCC5,COC=1C=CC=CC1OC=2C=CC(=CC2)NC=3C(=CN=C4C3C=C(C=C4)NC(=O)CCN5CCOCC5)C#N,-6.3893398
CTMCUPGWMZDNHP-UHFFFAOYSA-N,"Arabinoic acid, 2,3:4,5-di-O-benzylidene-, D-",O=C(O)C1OC(c2ccccc2)OC1C1COC(c2ccccc2)O1,c1ccc(cc1)C2OCC(O2)C3C(OC(O3)c4ccccc4)C(=O)O,O=C(O)C1OC(OC1C2COC(O2)C3=CC=CC=C3)C4=CC=CC=C4,-2.452
CTMFEUPSVOSORU-UHFFFAOYSA-N,"S6,9-BIS(PROPanoYLOXYMETHYL)-6-MERCAPTOPURINE",CCC(=O)OCSc1ncnc2c1ncn2COC(=O)CC,CCC(=O)OCn1cnc2c1ncnc2SCOC(=O)CC,CCC(=O)OCSC1=NC=NC2=C1N=CN2COC(=O)CC,-2.78
CTNPRCXXPGXKGW-UHFFFAOYSA-N,,CC(C)CC(NC(=O)Cc1ccc2nc(NC34CC5CC(CC(C5)C3)C4)oc2c1)C(=O)NC(CC(=O)O)c1ccc2c(c1)OCO2,CC(C)CC(C(=O)NC(CC(=O)O)c1ccc2c(c1)OCO2)NC(=O)Cc3ccc4c(c3)oc(n4)NC56CC7CC(C5)CC(C7)C6,CC(C)CC(NC(=O)CC=1C=CC=2N=C(OC2C1)NC34CC5CC(C3)CC(C5)C4)C(=O)NC(CC(=O)O)C=6C=CC7=C(C6)OCO7,-4.3467875
CTPOHARTNNSRSR-UHFFFAOYSA-N,beraprost,CC#CCC(C)[C@H](O)/C=C/[C@@H]1[C@H]2c3cccc(CCCC(=O)O)c3O[C@H]2C[C@H]1O,CC#CCC(C)[C@@H](/C=C/[C@H]1[C@@H](C[C@H]2[C@@H]1c3cccc(c3O2)CCCC(=O)O)O)O,CC#CCC(C)[C@@H](/C=C/[C@H]1[C@@H](C[C@H]2[C@@H]1C3=CC=CC(=C3O2)CCCC(=O)O)O)O,-1.321663826
CTQMJYWDVABFRZ-UHFFFAOYSA-N,"8-QUINOLINOL,5-CHLORO-",Oc1ccc(Cl)c2cccnc12,c1cc2c(ccc(c2nc1)O)Cl,OC=1C=CC(=C2C1N=CC=C2)Cl,-3.9758
CTRLABGOLIVAIY-UHFFFAOYSA-N,oxcarbazepine,NC(=O)N1c2ccccc2CC(=O)c2ccccc21,c1ccc2c(c1)CC(=O)c3ccccc3N2C(=O)N,C1C2=CC=CC=C2N(C3=CC=CC=C3C1=O)C(=O)N,-2.913314891
CTRSBSNBGVZFRN-UHFFFAOYSA-N,,Cc1cc(Nc2nc(NCc3cc(-c4ccccn4)no3)ncc2Br)[nH]n1,Cc1cc([nH]n1)Nc2c(cnc(n2)NCc3cc(no3)c4ccccn4)Br,CC=1C=C(NN1)NC=2N=C(N=CC2Br)NCC3=CC(=NO3)C=4C=CC=CN4,-5.403402900000001
CTSLUCNDVMMDHG-UHFFFAOYSA-N,"bromacil;  3-sec-butyl-5-bromo-6-methylpyrimidine-2,4-dione",CCC(C)n1c(=O)[nH]c(C)c(Br)c1=O,CCC(C)n1c(=O)c(c([nH]c1=O)C)Br,CCC(C)N1C(=O)NC(=C(C1=O)Br)C,-2.513
CTTHWASMBLQOFR-UHFFFAOYSA-N,,COc1cc(OC)nc(NC(=O)NS(=O)(=O)N(C)S(C)(=O)=O)n1,CN(S(=O)(=O)C)S(=O)(=O)NC(=O)Nc1nc(cc(n1)OC)OC,O=C(NC1=NC(=CC(=N1)OC)OC)NS(=O)(=O)N(C)S(=O)(=O)C,-2.08
CTTPZLMRVITYBV-UHFFFAOYSA-N,,O=C(NCCN1CCCCC1)c1ccc(Nc2ncc(Br)c(Nc3ccc(F)cc3)n2)cc1,c1cc(ccc1C(=O)NCCN2CCCCC2)Nc3ncc(c(n3)Nc4ccc(cc4)F)Br,FC=1C=CC(=CC1)NC=2N=C(N=CC2Br)NC=3C=CC(=CC3)C(=O)NCCN4CCCCC4,-5.3372421999999995
CTTWSFIIFMWHLQ-UHFFFAOYSA-N,,CS(=O)(=O)c1ccc(C(=O)O)c(Cl)c1,CS(=O)(=O)c1ccc(c(c1)Cl)C(=O)O,O=C(O)C1=CC=C(C=C1Cl)S(=O)(=O)C,-0.5923
CTVDFQYYIJKZPA-UHFFFAOYSA-N,,COc1cc2c(Nc3ncc(C(=O)Nc4ccccc4)[nH]3)ncnc2cc1OCCCN1CCOCC1,COc1cc2c(cc1OCCCN3CCOCC3)ncnc2Nc4[nH]c(cn4)C(=O)Nc5ccccc5,COC=1C=C2C(=NC=NC2=CC1OCCCN3CCOCC3)NC4=NC=C(N4)C(=O)NC=5C=CC=CC5,-5.2839967
CTXPWRRGJDHGNC-UHFFFAOYSA-N,1-tert-butyl-6-fluoro-4-oxo-7-piperazin-1-ylquinoline-3-carboxylic acid,CC(C)(C)n1cc(C(=O)O)c(=O)c2cc(F)c(N3CCNCC3)cc21,CC(C)(C)n1cc(c(=O)c2c1cc(c(c2)F)N3CCNCC3)C(=O)O,CC(C)(C)N1C=C(C(=O)C2=C1C=C(C(=C2)F)N3CCNCC3)C(=O)O,-3.428
CTYGQWCPJMPEBS-UHFFFAOYSA-N,4-Amino-N-(2-methyl-1-naphthyl)benzenesulfonamide,Cc1ccc2ccccc2c1NS(=O)(=O)c1ccc(N)cc1,Cc1ccc2ccccc2c1NS(=O)(=O)c3ccc(cc3)N,S(=O)(=O)(C1=CC=C(C=C1)N)NC2=C(C=CC3=C2C=CC=C3)C,-4.4975
CTYWXRDQWMRIIM-UHFFFAOYSA-N,,CC(C)(C)c1cc(/C=C/C(=O)O)cc(C(C)(C)C)c1O,CC(C)(C)c1cc(cc(c1O)C(C)(C)C)/C=C/C(=O)O,OC1=C(C=C(C=C1C(C)(C)C)/C=C/C(=O)O)C(C)(C)C,0.3861
CTZCDPNOAJATOH-UHFFFAOYSA-N,"1,4-Cyclohexadiene-1,2-dicarboxylic acid",O=C(O)C1=C(C(=O)O)CC=CC1,C1C=CCC(=C1C(=O)O)C(=O)O,C1(=C(CC=CC1)C(=O)O)C(=O)O,-1.002
CTZRLNBZVOMUJU-UHFFFAOYSA-N,,CC(C)CC(NC(=O)Cc1ccc2nc(Nc3ccc4ccccc4c3)oc2c1)C(=O)NC(CC(=O)O)c1ccc2c(c1)OCO2,CC(C)CC(C(=O)NC(CC(=O)O)c1ccc2c(c1)OCO2)NC(=O)Cc3ccc4c(c3)oc(n4)Nc5ccc6ccccc6c5,CC(C)CC(NC(=O)CC=1C=CC=2N=C(OC2C1)NC=3C=CC=4C=CC=CC4C3)C(=O)NC(CC(=O)O)C=5C=CC6=C(C5)OCO6,-3.7958800000000004
CUAMOIJGDAHAFH-UHFFFAOYSA-N,,COc1cc2c(Nc3c(Cl)ccc4c3OCO4)ncnc2cc1OCCOc1cccc(Cl)n1,COc1cc2c(cc1OCCOc3cccc(n3)Cl)ncnc2Nc4c(ccc5c4OCO5)Cl,COC=1C=C2C(=NC=NC2=CC1OCCOC=3C=CC=C(N3)Cl)NC=4C5=C(C=CC4Cl)OCO5,-5.9586073
CUARLQDWYSRQDF-UHFFFAOYSA-N,"ACENAPHTHYLENE, 1,2-DIHYDRO-5-NITRO-",O=[N+]([O-])c1ccc2c3c(cccc13)CC2,c1cc2c3c(ccc(c3c1)[N+](=O)[O-])CC2,[N+](=O)(C1=C2C=3C(=CC=C2)CCC3C=C1)[O-],-5.34015
CUCUKLJLRRAKFN-UHFFFAOYSA-N,USNIC ACID,CC(=O)c1c(O)c(C)c(O)c2c1OC1=CC(=O)C(C(C)=O)C(=O)C12C,Cc1c(c(c2c(c1O)C3(C(=CC(=O)C(C3=O)C(=O)C)O2)C)C(=O)C)O,CC(=O)C1C(=O)C=C2OC=3C(=C(C(=C(C3C2(C1=O)C)O)C)O)C(=O)C,-3.537
CUDVPFIZSZQMSY-UHFFFAOYSA-N,,O=C(Nc1ccncc1)C1CC(=O)N(c2ccc(Cl)cc2)C1,c1cc(ccc1N2CC(CC2=O)C(=O)Nc3ccncc3)Cl,ClC=1C=CC(=CC1)N2CC(CC2=O)C(=O)NC=3C=CN=CC3,-3.2441251
CUDYYMUUJHLCGZ-UHFFFAOYSA-N,DIPROPYLENE GLYCOL METHYL ETHER,COC(C)COC(C)CO,CC(CO)OCC(C)OC,COC(C)COC(C)CO,0.8292
CUGLICQCTXWQNF-UHFFFAOYSA-N,"2,2',3,6'-tetrachlorobiphenyl",Clc1cccc(-c2c(Cl)cccc2Cl)c1Cl,c1cc(c(c(c1)Cl)Cl)c2c(cccc2Cl)Cl,ClC1=CC=CC(=C1Cl)C2=C(C=CC=C2Cl)Cl,-6.3
CUHVIMMYOGQXCV-UHFFFAOYSA-N,dexmedetomidine hydrochloride,Cc1cccc([C@H](C)c2cnc[nH]2)c1C,Cc1cccc(c1C)[C@H](C)c2cnc[nH]2,CC1=C(C(=CC=C1)[C@H](C)C2=CN=CN2)C,-1.073241648
CUIHSIWYWATEQL-UHFFFAOYSA-N,pazopanib,Cc1ccc(Nc2nccc(N(C)c3ccc4c(C)n(C)nc4c3)n2)cc1S(N)(=O)=O,Cc1ccc(cc1S(=O)(=O)N)Nc2nccc(n2)N(C)c3ccc4c(n(nc4c3)C)C,CC1=C(C=C(C=C1)NC2=NC=CC(=N2)N(C)C3=CC4=NN(C(=C4C=C3)C)C)S(=O)(=O)N,-5.12248397
CUJJSLYROAWARJ-UHFFFAOYSA-N,vamidothion,CNC(=O)CCSCCSP(=O)(OC)OC,CNC(=O)CCSCCSP(=O)(OC)OC,CNC(=O)CCSCCSP(=O)(OC)OC,0.5416
CUKIVZPMDBQMFQ-UHFFFAOYSA-N,"3H-Pyrazol-3-one, 1,2-dihydro-5-methyl-1,2-diphe",Cc1cc(=O)n(-c2ccccc2)n1-c1ccccc1,Cc1cc(=O)n(n1c2ccccc2)c3ccccc3,C1(=O)N(N(C(=C1)C)C=2C=CC=CC2)C3=CC=CC=C3,-3.097
CUKXIDNDOQQWQN-UHFFFAOYSA-N,"2-Butenedioic acid (E)-, di-C12-18-alkyl esters",CCCCCCCCCCCCCCCOC(=O)/C=C/C(=O)OCCCCCCCCCCCCCCC,CCCCCCCCCCCCCCCOC(=O)/C=C/C(=O)OCCCCCCCCCCCCCCC,CCCCCCCCCCCCCCCOC(=O)/C=C/C(=O)OCCCCCCCCCCCCCCC,-6.553893792999999
CUKXRHLWPSBCTI-UHFFFAOYSA-N,2_amino_5_bromobenzoic_acid,Nc1ccc(Br)cc1C(=O)O,c1cc(c(cc1Br)C(=O)O)N,BrC=1C=C(C(=CC1)N)C(=O)O,-3.072
CULUKMPMGVXCEI-UHFFFAOYSA-N,Caulophylline,CN1C[C@@H]2C[C@@H](C1)c1cccc(=O)n1C2,CN1C[C@@H]2C[C@@H](C1)c3cccc(=O)n3C2,N12C(=CC=CC1=O)C3CN(CC(C2)C3)C,0.6484
CUOUYDSBGZFPGG-UHFFFAOYSA-N,,O=S(=O)(NCCNCCO)c1ccc(Nc2nccc(-c3cnc4ccccn34)n2)cc1,c1ccn2c(c1)ncc2c3ccnc(n3)Nc4ccc(cc4)S(=O)(=O)NCCNCCO,OCCNCCNS(=O)(=O)C=1C=CC(=CC1)NC=2N=CC=C(N2)C3=CN=C4N3C=CC=C4,-3.2146702
CUPYYSXFYAYGRG-UHFFFAOYSA-N,,CCc1ncc(-c2ccnc(Nc3ccc(S(=O)(=O)NC4CC4)cc3)n2)n1C,CCc1ncc(n1C)c2ccnc(n2)Nc3ccc(cc3)S(=O)(=O)NC4CC4,CCC1=NC=C(N1C)C=2C=CN=C(N2)NC=3C=CC(=CC3)S(=O)(=O)NC4CC4,-5.5243288
CUQOJKDEUVKOEM-UHFFFAOYSA-N,,COc1cc2c(Nc3cnc(NC(=O)c4ccccc4)nc3)ncnc2cc1OCCCN1CCCC1,COc1cc2c(cc1OCCCN3CCCC3)ncnc2Nc4cnc(nc4)NC(=O)c5ccccc5,COC=1C=C2C(=NC=NC2=CC1OCCCN3CCCC3)NC=4C=NC(=NC4)NC(=O)C=5C=CC=CC5,-2.9208187999999997
CURIYHGUJUPDSQ-UHFFFAOYSA-N,,O=C(NCCSCc1ccc(Cl)cc1)c1ccc(Cl)cc1,c1cc(ccc1CSCCNC(=O)c2ccc(cc2)Cl)Cl,ClC=1C=CC(=CC1)CSCCNC(=O)C=2C=CC(=CC2)Cl,-6.69897
CURLHBZYTFVCRG-UHFFFAOYSA-N,BCPC,CCC(C)OC(=O)Nc1cccc(Cl)c1,CCC(C)OC(=O)Nc1cccc(c1)Cl,O=C(NC1=CC(=CC=C1)Cl)OC(CC)C,-3.173
CURUTKGFNZGFSE-UHFFFAOYSA-N,dicyclomine hydrochloride,CCN(CC)CCOC(=O)C1(C2CCCCC2)CCCCC1,CCN(CC)CCOC(=O)C1(CCCCC1)C2CCCCC2,CCN(CC)CCOC(=O)C1(CCCCC1)C2CCCCC2,-0.840043331
CURXYDYIIFVEKO-UHFFFAOYSA-N,"4-{[2,5-dimethoxy-4-(methylsulfamoyl)phenyl]diazenyl}-3-hydroxy-N-(2-oxo-2,3-dihydro-1H-benzimidazol-5-yl)-2-naphthamide",CNS(=O)(=O)c1cc(OC)c(N/N=C2\C(=O)C(C(=O)Nc3ccc4[nH]c(=O)[nH]c4c3)=Cc3ccccc32)cc1OC,CNS(=O)(=O)c1cc(c(cc1OC)N/N=C\2/c3ccccc3C=C(C2=O)C(=O)Nc4ccc5c(c4)[nH]c(=O)[nH]5)OC,CNS(=O)(=O)C=1C=C(C(=CC1OC)N/N=C/2\C(=O)C(=CC3=C2C=CC=C3)C(=O)NC=4C=CC=5NC(=O)NC5C4)OC,-7.89181807
CUSMSBFNEHNGNQ-UHFFFAOYSA-N,,CC1CN(C(C)CO)C(=O)CCCn2nncc2COC1CN(C)Cc1ccc(Oc2ccccc2)cc1,CC1CN(C(=O)CCCn2c(cnn2)COC1CN(C)Cc3ccc(cc3)Oc4ccccc4)C(C)CO,CC(CO)N1CC(C(OCC2=CN=NN2CCCC1=O)CN(C)CC3=CC=C(C=C3)OC4=CC=CC=C4)C,-4.051
CUSYTUPJAYLNFQ-UHFFFAOYSA-N,(2S)-2-{[(benzyloxy)carbonyl]amino}-2-cyclohexylacetic acid,O=C(N[C@H](C(=O)O)C1CCCCC1)OCc1ccccc1,c1ccc(cc1)COC(=O)N[C@@H](C2CCCCC2)C(=O)O,OC(=O)[C@@H](NC(=O)OCC=1C=CC=CC1)C2CCCCC2,-3.285216802
CUVGUPIVTLGRGI-UHFFFAOYSA-N,,O=C(O)C1CN(CCCP(=O)(O)O)CCN1,C1CN(CC(N1)C(=O)O)CCCP(=O)(O)O,P(=O)(O)(O)CCCN1CC(NCC1)C(=O)O,0.2627
CUVLMZNMSPJDON-UHFFFAOYSA-N,"2-Propanol, 1-(2-butoxy-1-methylethoxy)-",CCCCOCC(C)OCC(C)O,CCCCOCC(C)OCC(C)O,O(CC(O)C)C(COCCCC)C,-0.6262
CUXRYZZQLQTALS-UHFFFAOYSA-N,,COc1cc2c(Oc3cc4cc[nH]c4cc3F)ncnc2cc1OCCCN1CCCC1,COc1cc2c(cc1OCCCN3CCCC3)ncnc2Oc4cc5cc[nH]c5cc4F,COC=1C=C2C(=NC=NC2=CC1OCCCN3CCCC3)OC=4C=C5C=CNC5=CC4F,-4.2839967
CUZKCNWZBXLAJX-UHFFFAOYSA-N,ETHYLENE GLYCOL MONOBENZYL ETHER,OCCOCc1ccccc1,c1ccc(cc1)COCCO,O(CC1=CC=CC=C1)CCO,-0.6633
CVAVMIODJQHEEH-UHFFFAOYSA-O,"cobalt(3+) ion 9-(2-carboxyphenyl)-6-(diethylamino)-N,N-diethyl-3H-xanthen-3-iminium bis(3-methyl-4-[(E)-2-(2-oxido-5-{[3-(propan-2-yloxy)propyl]sulfamoyl}phenyl)diazen-1-yl]-1-phenyl-1H-pyrazol-5-olate)",CCN(CC)c1ccc2c(-c3ccccc3C(=O)O)c3ccc(N(CC)CC)cc3[o+]c2c1,CCN(CC)c1ccc2c(c1)[o+]c3cc(ccc3c2c4ccccc4C(=O)O)N(CC)CC,CCN(CC)C=1C=CC=2C(C1)=[O+]C=3C=C(C=CC3C2C=4C=CC=CC4C(=O)O)N(CC)CC,-3.2357622439999996