inchikey,Name,SMILES_stand,SMILES,kekSmiles,logS
JRHMCAJLKYKKHE-UHFFFAOYSA-N,,Cc1ncc(-c2ccnc(Nc3ccc(S(=O)(=O)NCC(O)CO)cc3)n2)n1C,Cc1ncc(n1C)c2ccnc(n2)Nc3ccc(cc3)S(=O)(=O)NCC(CO)O,CC1=NC=C(N1C)C=2C=CN=C(N2)NC=3C=CC(=CC3)S(=O)(=O)NCC(O)CO,-4.69897
JRIATCFPZFOVNP-UHFFFAOYSA-N,4-methylene-2-(2-methylprop-1-en-1-yl)tetrahydro-2H-pyran,C=C1CCOC(C=C(C)C)C1,CC(=CC1CC(=C)CCO1)C,CC(=CC1CC(=C)CCO1)C,-2.51021118
JRIZOGLBRPZBLQ-UHFFFAOYSA-N,"Estr-4-ene-3,17-dione",C[C@]12CC[C@@H]3[C@H]4CCC(=O)C=C4CC[C@H]3[C@@H]1CCC2=O,C[C@]12CC[C@H]3[C@H]([C@@H]1CCC2=O)CCC4=CC(=O)CC[C@H]34,C[C@]12CC[C@H]3[C@H]([C@@H]1CCC2=O)CCC4=CC(=O)CC[C@H]34,-3.156750331
JRJBVWJSTHECJK-UHFFFAOYSA-N,FRA-021,CC(=O)/C(C)=C/C1C(C)=CCCC1(C)C,CC1=CCCC(C1/C=C(\C)/C(=O)C)(C)C,O=C(/C(=C/C1C(=CCCC1(C)C)C)/C)C,-4.051390635
JRJDVUJYUYKWNI-UHFFFAOYSA-N,,COCCN1CCN(CCCOc2cc3ncnc(Nc4ccc(F)c(Cl)c4)c3cc2OC)CC1,COCCN1CCN(CC1)CCCOc2cc3c(cc2OC)c(ncn3)Nc4ccc(c(c4)Cl)F,COCCN1CCN(CC1)CCCOC=2C=C3N=CN=C(C3=CC2OC)NC=4C=CC(=C(C4)Cl)F,-4.9586073
JRLUWLIIVKSPPT-UHFFFAOYSA-N,"Benzenamine, N-ethyl-2,4,6-trinitro-",CCNc1c([N+](=O)[O-])cc([N+](=O)[O-])cc1[N+](=O)[O-],CCNc1c(cc(cc1[N+](=O)[O-])[N+](=O)[O-])[N+](=O)[O-],CCNC=1C(=CC(=CC1[N+](=O)[O-])[N+](=O)[O-])[N+](=O)[O-],-3.40875
JRLYRPLKKARBHK-UHFFFAOYSA-N,,Cc1ccc(C#N)c(NS(=O)(=O)c2ccc(Cl)cc2)c1,Cc1ccc(c(c1)NS(=O)(=O)c2ccc(cc2)Cl)C#N,CC=1C=CC(=C(C1)NS(=O)(=O)C=2C=CC(=CC2)Cl)C#N,-2.8297383
JRNGUTKWMSBIBF-UHFFFAOYSA-N,"2,3-NAPHTHALENEDIOL",Oc1cc2ccccc2cc1O,c1ccc2cc(c(cc2c1)O)O,OC=1C=C2C=CC=CC2=CC1O,-2.738
JROCGEGBLKKVOM-UHFFFAOYSA-N,,Fc1ccc(Nc2ncnc3cccc(OC4CCOC4)c23)cc1Cl,c1cc2c(c(c1)OC3CCOC3)c(ncn2)Nc4ccc(c(c4)Cl)F,FC=1C=CC(=CC1Cl)NC=2N=CN=C3C2C(=CC=C3)OC4CCOC4,-6.0
JROWKMSMOKJXDW-UHFFFAOYSA-N,"1,2-dihydro-5-methyl-4-nitro-2-(4-nitrophenyl)-3",Cc1[nH]n(-c2ccc([N+](=O)[O-])cc2)c(=O)c1[N+](=O)[O-],Cc1c(c(=O)n([nH]1)c2ccc(cc2)[N+](=O)[O-])[N+](=O)[O-],N1C(=C(C(=O)N1C=2C=CC(=CC2)[N+](=O)[O-])[N+](=O)[O-])C,-2.332
JRTIDHTUMYMPRU-UHFFFAOYSA-N,alpidem,CCCN(CCC)C(=O)Cc1c(-c2ccc(Cl)cc2)nc2ccc(Cl)cn12,CCCN(CCC)C(=O)Cc1c(nc2n1cc(cc2)Cl)c3ccc(cc3)Cl,CCCN(CCC)C(=O)CC1=C(N=C2N1C=C(C=C2)Cl)C3=CC=C(C=C3)Cl,-4.30570597
JRURYQJSLYLRLN-UHFFFAOYSA-N,Entacapone,CCN(CC)C(=O)/C(C#N)=C\c1cc(O)c(O)c([N+](=O)[O-])c1,CCN(CC)C(=O)/C(=C\c1cc(c(c(c1)O)O)[N+](=O)[O-])/C#N,CCN(CC)C(=O)/C(=C\C1=CC(=C(C(=C1)[N+](=O)[O-])O)O)/C#N,-4.26
JRVHQBNYCLLBLK-UHFFFAOYSA-N,"2H-Pyran-3-carboxylic acid, 2-oxo-6-phenyl-, eth",CCOC(=O)c1ccc(-c2ccccc2)oc1=O,CCOC(=O)c1ccc(oc1=O)c2ccccc2,C=1(C(=O)OC(=CC1)C2=CC=CC=C2)C(=O)OCC,-2.735
JRVMJMAOYUGZIW-UHFFFAOYSA-N,,Cc1nn(C)c2c1S(=O)(=O)N=C(NCc1cccc(Cl)c1)S2,Cc1c2c(n(n1)C)SC(=NS2(=O)=O)NCc3cccc(c3)Cl,CC1=NN(C2=C1S(=O)(=O)N=C(S2)NCC=3C=CC=C(C3)Cl)C,-3.6307841
JRZQXPYZEBBLPJ-UHFFFAOYSA-N,"D-Glucofuranose, pentaacetate",CC(=O)OCC(OC(C)=O)C1OC(OC(C)=O)C(OC(C)=O)C1OC(C)=O,CC(=O)OCC(C1C(C(C(O1)OC(=O)C)OC(=O)C)OC(=O)C)OC(=O)C,O=C(OC1C(C(C(O1)C(OC(=O)C)COC(=O)C)OC(=O)C)OC(=O)C)C,-2.662
JSAKRLDIZOGQTN-UHFFFAOYSA-N,"1-Naphthalenesulfonic acid, 4- (2-hydroxy-1-naph",O=S(=O)(O)c1ccc(/N=N/c2c(O)ccc3ccccc23)c2ccccc12,c1ccc2c(c1)ccc(c2/N=N/c3ccc(c4c3cccc4)S(=O)(=O)O)O,S(=O)(=O)(C1=C2C(C=CC=C2)=C(C=C1)/N=N/C3=C4C(C=CC=C4)=CC=C3O)O,-1.163
JSAKUYFJPZQXBF-UHFFFAOYSA-N,"N-(3-Methyl-5-propylisoxazol-4-yl)-2-hydroxy-1,4-naphthoquinone-4-imine",CCCc1onc(C)c1/N=C1/C=C(O)C(=O)c2ccccc21,CCCc1c(c(no1)C)/N=C\2/C=C(C(=O)c3c2cccc3)O,CCCC1=C(C(=NO1)C)/N=C\2/C=C(C(=O)C3=C2C=CC=C3)O,-3.7
JSBMGPVJAADXIZ-UHFFFAOYSA-N,"5-[3-(2,4,6-trioxo-1,3-diazinan-5-ylidene)-2,3-dihydro-1H-isoindol-1-ylidene]-1,3-diazinane-2,4,6-trione",O=C1NC(=O)C(=c2[nH]c(=C3C(=O)NC(=O)NC3=O)c3ccccc23)C(=O)N1,c1ccc2c(c1)c(=C3C(=O)NC(=O)NC3=O)[nH]c2=C4C(=O)NC(=O)NC4=O,O=C1NC(=O)C(=C2NC(=C3C(=O)NC(=O)NC3=O)C=4C2=CC=CC4)C(=O)N1,-7.564996866
JSBOBNVYALOLNT-UHFFFAOYSA-N,,COc1cc(Cn2c3ccccc3c(=O)c3ccc(N4CCN(C)CC4)cc32)cc(OC)c1O,CN1CCN(CC1)c2ccc3c(c2)n(c4ccccc4c3=O)Cc5cc(c(c(c5)OC)O)OC,COC=1C=C(C=C(C1O)OC)CN2C=3C=CC=CC3C(=O)C4=C2C=C(C=C4)N5CCN(CC5)C,-5.954676999999999
JSBQMQFABBMNSV-UHFFFAOYSA-N,"2,7-NAPHTHALENEDISULFONIC ACID, 1-AMINO-",Nc1ccc(S(=O)(=O)O)c2cc(S(=O)(=O)O)ccc12,c1cc2c(ccc(c2cc1S(=O)(=O)O)S(=O)(=O)O)N,S(=O)(=O)(C=1C2=CC(=CC=C2C(=CC1)N)S(=O)(=O)O)O,-0.2592
JSCJSXHNBIXPBU-UHFFFAOYSA-N,"1-butyl-6-hydroxy-4-methyl-2-oxo-1,2-dihydropyridine-3-carbonitrile",CCCCn1c(O)c(C#N)c(C)cc1=O,CCCCn1c(=O)cc(c(c1O)C#N)C,CCCCN1C(=O)C=C(C(=C1O)C#N)C,-2.272995372
JSCUZLUQVFQIII-UHFFFAOYSA-N,"1,3-Cyclohexanedione, 2,2'-methylenebis[5,5-dime",CC1(C)CC(=O)C(CC2C(=O)CC(C)(C)CC2=O)C(=O)C1,CC1(CC(=O)C(C(=O)C1)CC2C(=O)CC(CC2=O)(C)C)C,C1(C(=O)CC(CC1=O)(C)C)CC2C(=O)CC(CC2=O)(C)C,-1.591
JSDGCANKASDATC-UHFFFAOYSA-N,ACYCLOVIR  ESTER  X;  omega-Acyclovir (4-morpholin-4-ylmethyl)benzoate,Nc1nc2c(ncn2COCCOC(=O)c2ccc(CN3CCOCC3)cc2)c(=O)[nH]1,c1cc(ccc1CN2CCOCC2)C(=O)OCCOCn3cnc4c3nc([nH]c4=O)N,NC1=NC2=C(N=CN2COCCOC(=O)C3=CC=C(C=C3)CN4CCOCC4)C(=O)N1,-2.75
JSDRRTOADPPCHY-UHFFFAOYSA-N,quinapril hydrochloride,CCOC(=O)[C@H](CCc1ccccc1)N[C@@H](C)C(=O)N1Cc2ccccc2C[C@H]1C(=O)O,CCOC(=O)[C@H](CCc1ccccc1)N[C@@H](C)C(=O)N2Cc3ccccc3C[C@H]2C(=O)O,CCOC(=O)[C@H](CCC1=CC=CC=C1)N[C@@H](C)C(=O)N2CC3=CC=CC=C3C[C@H]2C(=O)O,-1.6766753230000002
JSESZFWEWJFLHH-UHFFFAOYSA-N,,CCn1c2ccccc2c2cc(NC(=O)N3CCC(C(=O)NC)CC3)ccc21,CCn1c2ccccc2c3c1ccc(c3)NC(=O)N4CCC(CC4)C(=O)NC,CCN1C=2C=CC=CC2C3=C1C=CC(=C3)NC(=O)N4CCC(CC4)C(=O)NC,-5.080921900000001
JSFITYFUKSFPBZ-UHFFFAOYSA-N,"4-(4,6-dimethylheptan-2-yl)phenol; 4-(5,6-dimethylheptan-2-yl)phenol; 4-(5,6-dimethylheptyl)phenol; 4-(7-methyloctyl)phenol",CC(C)CCCCCCc1ccc(O)cc1,CC(C)CCCCCCc1ccc(cc1)O,CC(C)CCCCCCC=1C=CC(=CC1)O,-4.5871250130000005
JSFUMBWFPQSADC-UHFFFAOYSA-N,"1,4,5,8-TETRAAMINOANTHRAQUINONE",Nc1ccc(N)c2c1C(=O)c1c(N)ccc(N)c1C2=O,c1cc(c2c(c1N)C(=O)c3c(ccc(c3C2=O)N)N)N,NC=1C=CC(=C2C1C(=O)C3=C(C(=CC=C3N)N)C2=O)N,-6.95175
JSGTTYHFWBJUSS-UHFFFAOYSA-N,,CN(C)CCCN(C)S(=O)(=O)c1ccc(Nc2ncc(Br)c(-c3cnc4ccccn34)n2)cc1,CN(C)CCCN(C)S(=O)(=O)c1ccc(cc1)Nc2ncc(c(n2)c3cnc4n3cccc4)Br,CN(C)CCCN(C)S(=O)(=O)C=1C=CC(=CC1)NC=2N=CC(=C(N2)C3=CN=C4N3C=CC=C4)Br,-6.408935400000001
JSIDBRSPTZXMGO-UHFFFAOYSA-N,N-octylpyridine-3-carboxamide,CCCCCCCCNC(=O)c1cccnc1,CCCCCCCCNC(=O)c1cccnc1,CCCCCCCCNC(=O)C=1C=CC=NC1,-3.0081
JSJIIHRNDMLJGK-UHFFFAOYSA-N,Xanthoxyletin,COc1c2c(cc3oc(=O)ccc13)OC(C)(C)C=C2,CC1(C=Cc2c(cc3c(c2OC)ccc(=O)o3)O1)C,COC=1C=2C=CC(=O)OC2C=C3C1C=CC(O3)(C)C,-3.81
JSLBZIVMVVHMDJ-UHFFFAOYSA-N,"2,4-D, ETHYL ESTER",CCOC(=O)COc1ccc(Cl)cc1Cl,CCOC(=O)COc1ccc(cc1Cl)Cl,CCOC(=O)COC=1C=CC(=CC1Cl)Cl,-3.35065
JSNRRGGBADWTMC-UHFFFAOYSA-N,"(6E)-7,11-dimethyl-3-methylidenedodeca-1,6,10-triene",C=CC(=C)CC/C=C(\C)CCC=C(C)C,CC(=CCC/C(=C/CCC(=C)C=C)/C)C,CC(=CCC/C(=C/CCC(=C)C=C)/C)C,-6.31019476
JSRUDOBCTLPTFO-UHFFFAOYSA-N,DISPERSE BLUE 79,COc1cc(/N=N/c2c(Br)cc([N+](=O)[O-])cc2[N+](=O)[O-])c(NC(C)=O)cc1N(CCOC(C)=O)CCOC(C)=O,CC(=O)Nc1cc(c(cc1/N=N/c2c(cc(cc2Br)[N+](=O)[O-])[N+](=O)[O-])OC)N(CCOC(=O)C)CCOC(=O)C,COC=1C=C(C(=CC1N(CCOC(=O)C)CCOC(=O)C)NC(=O)C)/N=N/C=2C(=CC(=CC2[N+](=O)[O-])[N+](=O)[O-])Br,-5.495120243
JSSRCJBZFQMKLA-UHFFFAOYSA-N,,Cc1ccc2c(c1)C=Cc1cc(C)ccc1C2c1cn(Cc2ccc(C(=O)O)o2)c(=O)[nH]c1=O,Cc1ccc2c(c1)C=Cc3cc(ccc3C2c4cn(c(=O)[nH]c4=O)Cc5ccc(o5)C(=O)O)C,CC=1C=C2C(=CC1)C(C=3C(=CC(=CC3)C)C=C2)C4=CN(C(=O)NC4=O)CC5=CC=C(O5)C(=O)O,-2.7332374
JSTKTNCNRDMHRQ-UHFFFAOYSA-N,"1,2,3-Benzenetricarboxylic acid, 5-bromo-",O=C(O)c1cc(Br)cc(C(=O)O)c1C(=O)O,c1c(cc(c(c1C(=O)O)C(=O)O)C(=O)O)Br,OC(=O)C=1C=C(C=C(C1C(=O)O)C(=O)O)Br,-1.44805
JSWDEDYASNBGHS-UHFFFAOYSA-N,,COc1cc2c(Nc3ccc(Cl)cc3F)ncnc2cc1OCCCn1ccnn1,COc1cc2c(cc1OCCCn3ccnn3)ncnc2Nc4ccc(cc4F)Cl,COC=1C=C2C(=NC=NC2=CC1OCCCN3C=CN=N3)NC=4C=CC(=CC4F)Cl,-5.3467875
JSWZEAMFRNKZNL-UHFFFAOYSA-N,alosetron,Cc1[nH]cnc1CN1CCc2c(c3ccccc3n2C)C1=O,Cc1c(nc[nH]1)CN2CCc3c(c4ccccc4n3C)C2=O,CC1=C(N=CN1)CN2CCC3=C(C4=CC=CC=C4N3C)C2=O,-0.683534205
JSYUFUJLFRBMEN-UHFFFAOYSA-N,"1,3-Benzenedicarboxylic acid, 4-sulfo-",O=C(O)c1ccc(S(=O)(=O)O)c(C(=O)O)c1,c1cc(c(cc1C(=O)O)C(=O)O)S(=O)(=O)O,S(=O)(=O)(C1=C(C=C(C=C1)C(=O)O)C(=O)O)O,0.6087
JTAGHJPZEDNHHA-UHFFFAOYSA-N,"3-[[2-[2-(3,4-dimethoxyphenyl)ethylamino]-2-oxoethyl]amino]-N-methylbenzamide",CNC(=O)c1cccc(NCC(=O)NCCc2ccc(OC)c(OC)c2)c1,CNC(=O)c1cccc(c1)NCC(=O)NCCc2ccc(c(c2)OC)OC,O=C(NCCC=1C=C(C(=CC1)OC)OC)CNC=2C=C(C=CC2)C(=O)NC,-1.845
JTEDVYBZBROSJT-UHFFFAOYSA-N,3-INDOLEBUTYRIC ACID,O=C(O)CCCc1c[nH]c2ccccc12,c1ccc2c(c1)c(c[nH]2)CCCC(=O)O,OC(=O)CCCC1=CNC2=C1C=CC=C2,-2.91005
JTEGQNOMFQHVDC-UHFFFAOYSA-N,lamivudine,Nc1ccn([C@@H]2CS[C@H](CO)O2)c(=O)n1,c1cn(c(=O)nc1N)[C@@H]2CS[C@@H](O2)CO,C1[C@H](O[C@H](S1)CO)N2C=CC(=NC2=O)N,-0.515230248
JTGMTYWYUZDRBK-UHFFFAOYSA-N,"9,10-Dimethylanthracene",Cc1c2ccccc2c(C)c2ccccc12,Cc1c2ccccc2c(c3c1cccc3)C,CC=1C=2C=CC=CC2C(=C3C1C=CC=C3)C,-6.57
JTHMVYBOQLDDIY-UHFFFAOYSA-N,,CCCOc1nn(/C(O)=N/S(=O)(=O)c2ccccc2C(=O)OC)c(=O)n1C,CCCOc1nn(c(=O)n1C)/C(=N/S(=O)(=O)c2ccccc2C(=O)OC)/O,O=S(=O)(/N=C(\O)/N1N=C(N(C1=O)C)OCCC)C2=CC=CC=C2C(=O)OC,-1.0
JTHVYOIHZNYRCC-UHFFFAOYSA-N,2-Hexylcyclopentanone,CCCCCCC1CCCC1=O,CCCCCCC1CCCC1=O,CCCCCCC1CCCC1=O,-3.451757769
JTJMJGYZQZDUJJ-UHFFFAOYSA-N,phencyclidine hydrochloride,c1ccc(C2(N3CCCCC3)CCCCC2)cc1,c1ccc(cc1)C2(CCCCC2)N3CCCCC3,C1CCC(CC1)(C2=CC=CC=C2)N3CCCCC3,-1.397707289
JTNIWQBZJHVWRR-UHFFFAOYSA-N,"2-(5-benzyl-2,4-dioxoimidazolidin-1-yl)acetic acid",O=C(O)CN1C(=O)NC(=O)C1Cc1ccccc1,c1ccc(cc1)CC2C(=O)NC(=O)N2CC(=O)O,O=C(O)CN1C(=O)NC(=O)C1CC2=CC=CC=C2,-1.7905
JTPNRXUCIXHOKM-UHFFFAOYSA-N,1-Chloronapthalene,Clc1cccc2ccccc12,c1ccc2c(c1)cccc2Cl,ClC=1C=CC=C2C1C=CC=C2,-3.93
JTQVTGVNFFBMHA-UHFFFAOYSA-N,,O=CN(O)C(CCc1ncc(Cl)cn1)CS(=O)(=O)N1CCN(c2ccc(C#Cc3ccccn3)cn2)CC1,c1ccnc(c1)C#Cc2ccc(nc2)N3CCN(CC3)S(=O)(=O)CC(CCc4ncc(cn4)Cl)N(C=O)O,ON(C=O)C(CCC=1N=CC(=CN1)Cl)CS(=O)(=O)N2CCN(CC2)C=3C=CC(=CN3)C#CC=4C=CC=CN4,-5.8664610999999995
JTSBGMZPPPULTA-UHFFFAOYSA-N,"phenol, 4-(phenylazo)-",O=C1C=CC(=NNc2ccccc2)C=C1,c1ccc(cc1)NN=C2C=CC(=O)C=C2,O=C1C=CC(=NNC=2C=CC=CC2)C=C1,-3.343
JTSDBFGMPLKDCD-UHFFFAOYSA-N,,CCC1OC(=O)CC(O)C(C)C(OC2OC(C)C(O)C(N(C)C)C2O)C(CCN2CC(C)CC(C)C2)CC(C)C(=O)/C=C\C(C)=C/C1COC1OC(C)C(O)C(OC)C1OC,CCC1C(\C=C(/C=C\C(=O)C(CC(C(C(C(CC(=O)O1)O)C)OC2C(C(C(C(O2)C)O)N(C)C)O)CCN3CC(CC(C3)C)C)C)\C)COC4C(C(C(C(O4)C)O)OC)OC,OC1CC(=O)OC(C(\C=C(/C=C\C(=O)C(CC(C(C1C)OC2C(C(C(C(O2)C)O)N(C)C)O)CCN3CC(CC(C3)C)C)C)\C)COC4OC(C(C(C4OC)OC)O)C)CC,-0.1863
JTSMWVQRMAEUAJ-UHFFFAOYSA-O,,NCc1cc2c(O)n(-c3ccc(Cl)cc3)n[n+]2c2ccccc12,c1ccc2c(c1)c(cc3[n+]2nn(c3O)c4ccc(cc4)Cl)CN,NCC1=CC2=C(N(N=[N+]2C=3C1=CC=CC3)C=4C=CC(=CC4)Cl)O,-4.4701845
JTVBCXIVJCAUBK-UHFFFAOYSA-N,"2,4(1H,3H)-Pyrimidinedione, 1-methyl-5-nitro-",Cn1cc([N+](=O)[O-])c(=O)[nH]c1=O,Cn1cc(c(=O)[nH]c1=O)[N+](=O)[O-],CN1C=C(C(=O)NC1=O)[N+](=O)[O-],-1.99785
JTVPZMFULRWINT-UHFFFAOYSA-N,tiapride hydrochloride,CCN(CC)CCNC(=O)c1cc(S(C)(=O)=O)ccc1OC,CCN(CC)CCNC(=O)c1cc(ccc1OC)S(=O)(=O)C,CCN(CC)CCNC(=O)C1=C(C=CC(=C1)S(=O)(=O)C)OC,-0.6988391009999999
JTWOMNBEOCYFNV-UHFFFAOYSA-N,azlocillin,CC1(C)S[C@@H]2[C@H](NC(=O)[C@H](NC(=O)N3CCNC3=O)c3ccccc3)C(=O)N2[C@H]1C(=O)O,CC1([C@@H](N2[C@H](S1)[C@@H](C2=O)NC(=O)[C@@H](c3ccccc3)NC(=O)N4CCNC4=O)C(=O)O)C,CC1([C@@H](N2[C@H](S1)[C@@H](C2=O)NC(=O)[C@@H](C3=CC=CC=C3)NC(=O)N4CCNC4=O)C(=O)O)C,-0.96519229
JTXJRZUQPFHBOL-UHFFFAOYSA-N,,NC(=O)Nc1sc(-c2cccc3cccnc23)cc1C(N)=O,c1cc2cccnc2c(c1)c3cc(c(s3)NC(=O)N)C(=O)N,NC(=O)NC=1SC(=CC1C(=O)N)C=2C=CC=C3C2N=CC=C3,-4.8860566
JTXMVXSTHSMVQF-UHFFFAOYSA-N,ETHYLENE GLYCOL DIACETATE,CC(=O)OCCOC(C)=O,CC(=O)OCCOC(=O)C,CC(=O)OCCOC(=O)C,0.0857
JTXZPQIXIXYMDY-UHFFFAOYSA-N,6-PHENYLCAPROIC ACID,O=C(O)CCCCCc1ccccc1,c1ccc(cc1)CCCCCC(=O)O,OC(=O)CCCCCC=1C=CC=CC1,-2.6028
JTYUPBNYCBAFRL-UHFFFAOYSA-N,,C=CCN1CCN(CCCOc2cc3c(Nc4ccc(F)c(Cl)c4)ncnc3cc2OC)CC1,COc1cc2c(cc1OCCCN3CCN(CC3)CC=C)c(ncn2)Nc4ccc(c(c4)Cl)F,COC=1C=C2N=CN=C(C2=CC1OCCCN3CCN(CC3)CC=C)NC=4C=CC(=C(C4)Cl)F,-3.2365720000000002
JTZCTMAVMHRNTR-UHFFFAOYSA-N,Pyridate,CCCCCCCCSC(=O)Oc1cc(Cl)nnc1-c1ccccc1,CCCCCCCCSC(=O)Oc1cc(nnc1c2ccccc2)Cl,N1=C(C(=CC(=N1)Cl)OC(=O)SCCCCCCCC)C=2C=CC=CC2,-5.402
JTZZSQYMACOLNN-UHFFFAOYSA-N,simeprevir,COc1ccc2c(O[C@@H]3C[C@H]4C(=O)N[C@]5(C(=O)NS(=O)(=O)C6CC6)C[C@H]5/C=C\CCCCN(C)C(=O)[C@@H]4C3)cc(-c3nc(C(C)C)cs3)nc2c1C,Cc1c(ccc2c1nc(cc2O[C@@H]3C[C@@H]4[C@@H](C3)C(=O)N(CCCC/C=C\[C@@H]5C[C@]5(NC4=O)C(=O)NS(=O)(=O)C6CC6)C)c7nc(cs7)C(C)C)OC,CC1=C(C=CC2=C1N=C(C=C2O[C@@H]3C[C@@H]4[C@@H](C3)C(=O)N(CCCC/C=C\[C@@H]5C[C@]5(NC4=O)C(=O)NS(=O)(=O)C6CC6)C)C7=NC(=CS7)C(C)C)OC,-9.070887086
JUBCDKGMGZYLGX-UHFFFAOYSA-N,,COc1ccc(Nc2ncnc3cc(OC)c(OCCCN4CCOCC4)cc23)cc1Cl,COc1ccc(cc1Cl)Nc2c3cc(c(cc3ncn2)OC)OCCCN4CCOCC4,COC=1C=CC(=CC1Cl)NC=2N=CN=C3C2C=C(C(=C3)OC)OCCCN4CCOCC4,-5.251812
JUEQIEPKAMJDNR-UHFFFAOYSA-N,,O=CN(O)C(CS(=O)(=O)N1CCN(c2ccc(Cl)cn2)CC1)c1cccnc1,c1cc(cnc1)C(CS(=O)(=O)N2CCN(CC2)c3ccc(cn3)Cl)N(C=O)O,ON(C=O)C(CS(=O)(=O)N1CCN(CC1)C=2C=CC(=CN2)Cl)C=3C=CC=NC3,-3.3372422
JUEUJJZXWPMRKN-UHFFFAOYSA-N,,O=S(=O)(NCCNC/C=C/c1ccc(Br)cc1)c1ccc(Cl)c2ncccc12,c1cc2c(ccc(c2nc1)Cl)S(=O)(=O)NCCNC/C=C/c3ccc(cc3)Br,ClC=1C=CC(=C2C1N=CC=C2)S(=O)(=O)NCCNC/C=C/C=3C=CC(=CC3)Br,-4.522878700000001
JUFADMDNFLYBPC-UHFFFAOYSA-N,N-[2-(hexanoylamino)ethyl]hexanamide,CCCCCC(=O)NCCNC(=O)CCCCC,CCCCCC(=O)NCCNC(=O)CCCCC,CCCCCC(=O)NCCNC(=O)CCCCC,-3.108
JUFPVNPONCWXBC-UHFFFAOYSA-N,(3-{[(ethylimino)methylidene]amino}propyl)dimethylamine hydrochloride,CCN(C#N)CCCN(C)C,CCN(CCCN(C)C)C#N,CCN(CCCN(C)C)C#N,0.717382147
JUGIJELZASXNTP-UHFFFAOYSA-N,,COc1cc2c(Nc3cnc(C(=O)Nc4ccc(Cl)cc4)nc3)ncnc2cc1OCCCN1CCOCC1,COc1cc2c(cc1OCCCN3CCOCC3)ncnc2Nc4cnc(nc4)C(=O)Nc5ccc(cc5)Cl,COC=1C=C2C(=NC=NC2=CC1OCCCN3CCOCC3)NC=4C=NC(=NC4)C(=O)NC=5C=CC(=CC5)Cl,-6.853872
JUGYAPNHDLMEAK-UHFFFAOYSA-N,,CCn1c2ccccc2c2cc(NC(=O)CNC(=O)OC)ccc21,CCn1c2ccccc2c3c1ccc(c3)NC(=O)CNC(=O)OC,CCN1C=2C=CC=CC2C3=C1C=CC(=C3)NC(=O)CNC(=O)OC,-4.79588
JUHORIMYRDESRB-UHFFFAOYSA-N,"N,N'-bis(phenylmethyl)ethane-1,2-diamine",c1ccc(CNCCNCc2ccccc2)cc1,c1ccc(cc1)CNCCNCc2ccccc2,N(CCNCC=1C=CC=CC1)CC=2C=CC=CC2,-1.208
JUHYLYSRSPULPC-UHFFFAOYSA-N,,Cc1ccc(-c2cc(Nc3ncc(C#N)c(N)n3)n[nH]2)cc1,Cc1ccc(cc1)c2cc(n[nH]2)Nc3ncc(c(n3)N)C#N,CC=1C=CC(=CC1)C2=CC(=NN2)NC=3N=CC(=C(N3)N)C#N,-6.2153827
JUIBLDFFVYKUAC-UHFFFAOYSA-N,"2,5-dimethylhexane-2,5-diyl bis[2-(ethylperoxy)hexanoate]",CCCCC(CC)C(=O)OOC(C)(C)CCC(C)(C)OOC(=O)C(CC)CCCC,CCCCC(CC)C(=O)OOC(C)(C)CCC(C)(C)OOC(=O)C(CC)CCCC,CCCCC(CC)C(=O)OOC(C)(C)CCC(C)(C)OOC(=O)C(CC)CCCC,-7.188248023
JUJVFYCXJFWVJY-UHFFFAOYSA-N,"Butanedioic acid, (1-methylethenyl)-",C=C(C)C(CC(=O)O)C(=O)O,CC(=C)C(CC(=O)O)C(=O)O,C(C(=O)O)(C(=C)C)CC(=O)O,-0.3206
JUKDYCIJFYMUEO-UHFFFAOYSA-N,,COCCOc1ncc(-c2cc(C(N)=O)c(NC(N)=O)s2)cc1C,Cc1cc(cnc1OCCOC)c2cc(c(s2)NC(=O)N)C(=O)N,COCCOC=1N=CC(=CC1C)C2=CC(=C(S2)NC(=O)N)C(=O)N,-6.0985417
JUKVMZWISLRXOF-UHFFFAOYSA-N,,CCN(c1cnccn1)S(=O)(=O)c1ccc(NC(=O)C(C)(O)C(F)(F)F)c(Cl)c1,CCN(c1cnccn1)S(=O)(=O)c2ccc(c(c2)Cl)NC(=O)C(C)(C(F)(F)F)O,CCN(C=1C=NC=CN1)S(=O)(=O)C=2C=CC(=C(C2)Cl)NC(=O)C(C)(O)C(F)(F)F,-4.1674911
JUPJZUTYDWXZAQ-UHFFFAOYSA-N,,COc1ccc(Br)c(C=O)c1O,COc1ccc(c(c1O)C=O)Br,COC=1C=CC(=C(C1O)C=O)Br,-3.3279021
JURKNVYFZMSNLP-UHFFFAOYSA-N,cyclobenzaprine hydrochloride,CN(C)CCC=C1c2ccccc2C=Cc2ccccc21,CN(C)CCC=C1c2ccccc2C=Cc3c1cccc3,CN(C)CCC=C1C2=CC=CC=C2C=CC=3C1=CC=CC3,-0.192915753
JURSPXZSRJNNFQ-UHFFFAOYSA-N,,COc1cc2c(Nc3ncc(CC(=O)Nc4ccccc4)s3)ncnc2cc1OCC1CCN(C)CC1,CN1CCC(CC1)COc2cc3c(cc2OC)c(ncn3)Nc4ncc(s4)CC(=O)Nc5ccccc5,COC=1C=C2C(=NC=NC2=CC1OCC3CCN(CC3)C)NC4=NC=C(S4)CC(=O)NC=5C=CC=CC5,-6.1249387
JUSMHIGDXPKSID-UHFFFAOYSA-N,aurothioglucose hydrate,OC[C@H]1OC(S)[C@H](O)[C@@H](O)[C@@H]1O,C([C@@H]1[C@H]([C@@H]([C@H](C(O1)S)O)O)O)O,C([C@@H]1[C@H]([C@@H]([C@H](C(O1)S)O)O)O)O,-1.8945154380000002
JUSPAZLITCSXQU-UHFFFAOYSA-N,,Cc1ccc(Cl)c(Nc2cc(Nc3ccc(OCCN4CCCCC4)cc3)ncn2)c1,Cc1ccc(c(c1)Nc2cc(ncn2)Nc3ccc(cc3)OCCN4CCCCC4)Cl,CC=1C=CC(=C(C1)NC=2C=C(N=CN2)NC=3C=CC(=CC3)OCCN4CCCCC4)Cl,-4.8860566
JUTWSMKHSDVLSS-UHFFFAOYSA-N,"2-[2-[4-[(2-cyanoethyl)methylamino]phenyl]vinyl]-1,3,3-trimethyl-3H-indolium hydrogen sulphate",CN(CCC#N)c1ccc(/C=C/C2=[N+](C)c3ccccc3C2(C)C)cc1,CC1(c2ccccc2[N+](=C1/C=C/c3ccc(cc3)N(C)CCC#N)C)C,CN(CCC#N)C=1C=CC(=CC1)/C=C/C2=[N+](C=3C=CC=CC3C2(C)C)C,-0.8523
JUUKOKREFSGGNC-UHFFFAOYSA-N,,COc1cc2c(Nc3ccc(NC(=O)c4cccc(Cl)c4)nc3)ncnc2cc1OCCCN1CCCC1,COc1cc2c(cc1OCCCN3CCCC3)ncnc2Nc4ccc(nc4)NC(=O)c5cccc(c5)Cl,COC=1C=C2C(=NC=NC2=CC1OCCCN3CCCC3)NC=4C=CC(=NC4)NC(=O)C=5C=CC=C(C5)Cl,-6.0222764
JUVIOZPCNVVQFO-UHFFFAOYSA-N,Rotenone,C=C(C)[C@H]1Cc2c(ccc3c2O[C@@H]2COc4cc(OC)c(OC)cc4[C@@H]2C3=O)O1,CC(=C)[C@H]1Cc2c(ccc3c2O[C@@H]4COc5cc(c(cc5[C@@H]4C3=O)OC)OC)O1,O=C1C2C3=CC(=C(C=C3OCC2OC4=C1C=CC5=C4CC(O5)C(=C)C)OC)OC,-4.445
JUVSRZCUMWZBFK-UHFFFAOYSA-N,"ETHANOL, 2,2'- (4-METHYLPHENYL)IMINO BIS-",Cc1ccc(N(CCO)CCO)cc1,Cc1ccc(cc1)N(CCO)CCO,C1(=CC=C(C=C1)C)N(CCO)CCO,-0.91
JUWUWIGZUVEFQB-UHFFFAOYSA-N,"(1,5,5-trimethyl-6-bicyclo[2.2.1]heptanyl) acetate",CC(=O)OC1C2(C)CCC(C2)C1(C)C,CC(=O)OC1C(C2CCC1(C2)C)(C)C,CC(=O)OC1C(C2CCC1(C2)C)(C)C,-3.874798442
JUXJZTJLUULZRU-UHFFFAOYSA-N,"Urea, N,N'-bis(4-acetylphenyl)-",CC(=O)c1ccc(NC(=O)Nc2ccc(C(C)=O)cc2)cc1,CC(=O)c1ccc(cc1)NC(=O)Nc2ccc(cc2)C(=O)C,C(=O)(NC=1C=CC(=CC1)C(=O)C)NC2=CC=C(C=C2)C(=O)C,-3.859
JUZNVIUTDSYVKA-UHFFFAOYSA-N,3-Acetyl-5-fluorouracil,CC(=O)n1c(=O)[nH]cc(F)c1=O,CC(=O)n1c(=O)c(c[nH]c1=O)F,CC(=O)N1C(=O)NC=C(C1=O)F,-0.6
JVAZJLFFSJARQM-UHFFFAOYSA-N,Hexyl D-glucoside,CCCCCCOC1O[C@H](CO)[C@@H](O)[C@H](O)[C@H]1O,CCCCCCOC1[C@@H]([C@H]([C@@H]([C@H](O1)CO)O)O)O,CCCCCCOC1O[C@@H]([C@H]([C@@H]([C@H]1O)O)O)CO,-0.6586993729999999
JVBNHJDWWBSWLE-UHFFFAOYSA-N,"3-Ethoxy-1,1,5-trimethylcyclohexane",CCOC1CC(C)CC(C)(C)C1,CCOC1CC(CC(C1)(C)C)C,CCOC1CC(CC(C1)(C)C)C,-4.134147217
JVCAICKREQGRNS-UHFFFAOYSA-N,,CCCn1cc(Cc2ccc(C(=O)NS(=O)(=O)c3ccccc3)cc2OC)c2cc(C(=O)NCC(C)CC)ccc21,CCCn1cc(c2c1ccc(c2)C(=O)NCC(C)CC)Cc3ccc(cc3OC)C(=O)NS(=O)(=O)c4ccccc4,CCCN1C=C(C2=C1C=CC(=C2)C(=O)NCC(C)CC)CC=3C=CC(=CC3OC)C(=O)NS(=O)(=O)C=4C=CC=CC4,-4.9706162
JVFGXWCLGNACOG-UHFFFAOYSA-N,"2,3,3',4'-TETRACHLORODIPHENYL  ETHER",Clc1ccc(Oc2cccc(Cl)c2Cl)cc1Cl,c1cc(c(c(c1)Cl)Cl)Oc2ccc(c(c2)Cl)Cl,ClC1=C(C=C(C=C1)OC2=CC=CC(=C2Cl)Cl)Cl,-6.9
JVFYCULORCKYMD-UHFFFAOYSA-N,Periplocin,COC1C(O)[C@H](O[C@H]2CC[C@]3(C)C4CC[C@]5(C)[C@@H](C6=CC(=O)OC6)CC[C@]5(O)C4CC[C@]3(O)C2)OC(CO[C@@H]2C(O)C[C@@H](O)OC2C)[C@H]1O,CC1[C@@H](C(C[C@H](O1)O)O)OCC2[C@H](C(C([C@@H](O2)O[C@H]3CC[C@@]4(C5CC[C@@]6([C@H](CC[C@@]6(C5CC[C@@]4(C3)O)O)C7=CC(=O)OC7)C)C)O)OC)O,COC1[C@@H](C(O[C@H](C1O)O[C@H]2CC[C@@]3(C4CC[C@@]5([C@H](CC[C@@]5(C4CC[C@@]3(C2)O)O)C6=CC(=O)OC6)C)C)CO[C@@H]7C(C[C@H](OC7C)O)O)O,-1.94
JVGVDSSUAVXRDY-UHFFFAOYSA-N,"Benzenepropanoic acid, .alpha.,beta.-dihydroxy-",O=C(O)C(O)Cc1ccc(O)cc1,c1cc(ccc1CC(C(=O)O)O)O,C(CC1=CC=C(C=C1)O)(C(=O)O)O,-1.15
JVHMUUUYNIPCPF-UHFFFAOYSA-N,tricresyl_phosphate,Cc1cc(O)ccc1OP(=O)(Oc1cc(O)ccc1C)Oc1c(C)cccc1O,Cc1cccc(c1OP(=O)(Oc2ccc(cc2C)O)Oc3cc(ccc3C)O)O,P(=O)(OC1=CC=C(C=C1C)O)(OC2=CC(=CC=C2C)O)OC3=C(C=CC=C3O)C,-6.7
JVHXJTBJCFBINQ-UHFFFAOYSA-N,dapagliflozin,CCOc1ccc(Cc2cc([C@@H]3O[C@H](CO)[C@@H](O)[C@H](O)[C@H]3O)ccc2Cl)cc1,CCOc1ccc(cc1)Cc2cc(ccc2Cl)[C@H]3[C@@H]([C@H]([C@@H]([C@H](O3)CO)O)O)O,CCOC1=CC=C(C=C1)CC2=C(C=CC(=C2)[C@H]3[C@@H]([C@H]([C@@H]([C@H](O3)CO)O)O)O)Cl,-2.4074652640000003
JVJNGBUBIVOPCZ-UHFFFAOYSA-N,,COc1cc(CC(=O)NC(CCS(C)(=O)=O)C(=O)NC(CC(=O)OC2CCN(C)CC2)c2ccc3c(c2)OCO3)cc2oc(Nc3ccccc3)nc12,CN1CCC(CC1)OC(=O)CC(c2ccc3c(c2)OCO3)NC(=O)C(CCS(=O)(=O)C)NC(=O)Cc4cc5c(c(c4)OC)nc(o5)Nc6ccccc6,COC=1C=C(C=C2C1N=C(O2)NC=3C=CC=CC3)CC(=O)NC(CCS(=O)(=O)C)C(=O)NC(CC(=O)OC4CCN(CC4)C)C=5C=CC6=C(C5)OCO6,-3.8239087
JVJSIARNMKAGSG-UHFFFAOYSA-N,,CCCCCNS(=O)(=O)c1ccc(Nc2cc(-c3ccncc3)n[nH]2)cc1,CCCCCNS(=O)(=O)c1ccc(cc1)Nc2cc(n[nH]2)c3ccncc3,CCCCCNS(=O)(=O)C=1C=CC(=CC1)NC2=CC(=NN2)C=3C=CN=CC3,-5.7447275
JVMCMMXFADJQKU-UHFFFAOYSA-N,7-alpha-HYDROXY-5beta-CHOLANOIC  ACID,CC(CCC(=O)O)C1CCC2C3C(O)CC4CCCCC4(C)C3CCC12C,CC(CCC(=O)O)C1CCC2C1(CCC3C2C(CC4C3(CCCC4)C)O)C,CC(CCC(=O)O)C1CCC2C1(CCC3C2C(CC4C3(CCCC4)C)O)C,-6.46
JVOGOPUDRSTHPY-UHFFFAOYSA-N,CYCLOPROTHRIN,CCOc1ccc(C2(OC(=O)C(C#N)c3cccc(Oc4ccccc4)c3)CC2(Cl)Cl)cc1,CCOc1ccc(cc1)C2(CC2(Cl)Cl)OC(=O)C(C#N)c3cccc(c3)Oc4ccccc4,C1=CC=C(C=C1C(C#N)C(=O)OC2(CC2(Cl)Cl)C3=CC=C(C=C3)OCC)OC4=CC=CC=C4,-6.724
JVPGYYNQTPWXGE-UHFFFAOYSA-N,"2-(4-methylphenyl)-1,3-benzothiazole",Cc1ccc(-c2nc3ccccc3s2)cc1,Cc1ccc(cc1)c2nc3ccccc3s2,CC=1C=CC(=CC1)C=2SC=3C(N2)=CC=CC3,-4.353
JVTZFYYHCGSXJV-UHFFFAOYSA-N,3-hydroxy-4-methoxybenzaldehyde,COc1ccc(C=O)cc1O,COc1ccc(cc1O)C=O,COC=1C=CC(=CC1O)C=O,-1.8261216230000001