inchikey,Name,SMILES_stand,SMILES,kekSmiles,logS
AFAJWWIDGZKDJA-UHFFFAOYSA-N,,CC(C(=O)N1CCN(c2ncnc3ccsc23)CC1)c1ccc(Cl)cc1,CC(c1ccc(cc1)Cl)C(=O)N2CCN(CC2)c3c4c(ccs4)ncn3,CC(C(=O)N1CCN(CC1)C=2N=CN=C3C2SC=C3)C=4C=CC(=CC4)Cl,-4.1897675
AFDXODALSZRGIH-UHFFFAOYSA-N,p-methoxycinnamic acid (trans),COc1ccc(/C=C/C(=O)O)cc1,COc1ccc(cc1)/C=C/C(=O)O,O=C(O)/C=C/C1=CC=C(C=C1)OC,-2.398
AFFLGGQVNFXPEV-UHFFFAOYSA-N,"8-ethyl-10,12-diheptyl-9,11,13-trimethylhenicosane; 8-ethyl-10-heptyl-9,11-dimethylnonadecane",C=CCCCCCCCC,CCCCCCCCC=C,CCCCCCCCC=C,-5.51
AFFWVXHJHJCZQJ-UHFFFAOYSA-N,,CC(C)CC(NC(=O)Cc1ccc2nc(Nc3ccc[n+]([O-])c3)oc2c1)C(=O)NC(CC(=O)O)c1ccc2c(c1)OCO2,CC(C)CC(C(=O)NC(CC(=O)O)c1ccc2c(c1)OCO2)NC(=O)Cc3ccc4c(c3)oc(n4)Nc5ccc[n+](c5)[O-],CC(C)CC(NC(=O)CC=1C=CC=2N=C(OC2C1)NC=3C=CC=[N+](C3)[O-])C(=O)NC(CC(=O)O)C=4C=CC5=C(C4)OCO5,-2.9586072999999997
AFGBRTKUTJQHIP-UHFFFAOYSA-N,"3-methyl-2-(2-oxo-1,3-diazinan-1-yl)butanoic acid",CC(C)C(C(=O)O)N1CCCNC1=O,CC(C)C(C(=O)O)N1CCCNC1=O,CC(C)C(N1CCCNC1=O)C(=O)O,-1.105140992
AFHJQYHRLPMKHU-UHFFFAOYSA-N,ALOIN,O=C1c2c(O)cccc2[C@@H]([C@@H]2O[C@H](CO)[C@@H](O)[C@H](O)[C@H]2O)c2cc(CO)cc(O)c21,c1cc2c(c(c1)O)C(=O)c3c(cc(cc3O)CO)[C@@H]2[C@H]4[C@@H]([C@H]([C@@H]([C@H](O4)CO)O)O)O,OC[C@H]1O[C@H]([C@@H]([C@H]([C@@H]1O)O)O)[C@@H]2C=3C=CC=C(C3C(=O)C4=C2C=C(C=C4O)CO)O,-1.70225
AFIIBUOYKYSPKB-UHFFFAOYSA-N,AZIPROTRYNE,CSc1nc(N=[N+]=[N-])nc(NC(C)C)n1,CC(C)Nc1nc(nc(n1)SC)N=[N+]=[N-],CSC=1N=C(N=C(N1)N=[N+]=[N-])NC(C)C,-3.612
AFJKTDHODXNWOQ-UHFFFAOYSA-N,,O=C(Nc1ccccc1Cl)c1cccc(Cl)c1O,c1ccc(c(c1)NC(=O)c2cccc(c2O)Cl)Cl,OC=1C(=CC=CC1C(=O)NC=2C=CC=CC2Cl)Cl,-2.9065783
AFJWMGOTLUUGHF-UHFFFAOYSA-N,"2,3,4,5,6,7-hexahydro-1H-isoindole-1,3-dione",O=C1NC(=O)C2=C1CCCC2,C1CCC2=C(C1)C(=O)NC2=O,O=C1NC(=O)C2=C1CCCC2,-1.9747588630000001
AFJYYKSVHJGXSN-UHFFFAOYSA-N,,COC1CC(OC2/C(C)=C\CC3CC(CC4(CCC(C)C(C5CCCCC5)O4)O3)OC(=O)C3C=C(C)/C(=N\O)C4OCC(=C/C=C\C2C)C34O)OC(C)C1O,CC1CCC2(CC3CC(O2)C/C=C(\C(C(/C=C\C=C4COC\5C4(C(C=C(/C5=N\O)C)C(=O)O3)O)C)OC6CC(C(C(O6)C)O)OC)/C)OC1C7CCCCC7,C1CC(C(OC12CC3OC(=O)C4C5(C(/C(=N/O)/C(=C4)C)OCC5=C/C=C\C(C(/C(=C\CC(C3)O2)/C)OC6OC(C(C(C6)OC)O)C)C)O)C7CCCCC7)C,-6.247999999999999
AFMZPRLSDKCBRL-UHFFFAOYSA-N,"Guanidine, N-butyl-N'-sulfanilyl-",CCCCNC(=N)NS(=O)(=O)c1ccc(N)cc1,CCCCNC(=N)NS(=O)(=O)c1ccc(cc1)N,S(=O)(=O)(NC(=N)NCCCC)C1=CC=C(C=C1)N,-2.985
AFOGBLYPWJJVAL-UHFFFAOYSA-N,Phenbutamide,CCCCNC(=O)NS(=O)(=O)c1ccccc1,CCCCNC(=O)NS(=O)(=O)c1ccccc1,S(=O)(=O)(NC(=O)NCCCC)C=1C=CC=CC1,-3.05
AFONSIUYROUVLE-UHFFFAOYSA-N,,O=C(Nc1ccc(Cl)cc1Cl)c1c(O)cccc1O,c1cc(c(c(c1)O)C(=O)Nc2ccc(cc2Cl)Cl)O,OC=1C=CC=C(C1C(=O)NC=2C=CC(=CC2Cl)Cl)O,-5.3027707
AFPHTEQTJZKQAQ-UHFFFAOYSA-N,m-nitrobenzoic acid,O=C(O)c1cccc([N+](=O)[O-])c1,c1cc(cc(c1)[N+](=O)[O-])C(=O)O,OC(=O)C=1C=CC=C(C1)[N+](=O)[O-],-1.68
AFSIMBWBBOJPJG-UHFFFAOYSA-N,VINYL STEARATE;  Octadecanoic acid vinyl ester,C=COC(=O)CCCCCCCCCCCCCCCCC,CCCCCCCCCCCCCCCCCC(=O)OC=C,CCCCCCCCCCCCCCCCCC(=O)OC=C,-6.15
AFSYRVDDZGJTIL-UHFFFAOYSA-N,"4,4'-Oxydi-2-butanol",CC(O)CCOCCC(C)O,CC(CCOCCC(C)O)O,CC(O)CCOCCC(C)O,0.7899
AFUKNJHPZAVHGQ-UHFFFAOYSA-N,"benzaldehyde, 2,5-dimethoxy-",COc1ccc(OC)c(C=O)c1,COc1ccc(c(c1)C=O)OC,COC=1C=CC(=C(C1)C=O)OC,-2.32
AFVRYMPIZFJJIL-UHFFFAOYSA-N,5-aminoquinoline-8-sulfonic acid,Nc1ccc(S(=O)(=O)O)c2ncccc12,c1cc2c(ccc(c2nc1)S(=O)(=O)O)N,NC1=C2C=CC=NC2=C(C=C1)S(=O)(=O)O,-2.7085
AFXPHPJZBWPTOE-UHFFFAOYSA-N,,COCCCNS(=O)(=O)c1ccc(Nc2ncc(C#N)c(N(C)CC(F)(F)F)n2)cc1,CN(CC(F)(F)F)c1c(cnc(n1)Nc2ccc(cc2)S(=O)(=O)NCCCOC)C#N,COCCCNS(=O)(=O)C=1C=CC(=CC1)NC=2N=CC(=C(N2)N(C)CC(F)(F)F)C#N,-5.4202164
AFYCEAFSNDLKSX-UHFFFAOYSA-N,7-diethylamino-4-methylchromen-2-one,CCN(CC)c1ccc2c(C)cc(=O)oc2c1,CCN(CC)c1ccc2c(cc(=O)oc2c1)C,O=C1OC=2C(C(=C1)C)=CC=C(C2)N(CC)CC,-4.001
AFZTYHRVDOKRKV-UHFFFAOYSA-N,M-ACETYLAMINOACETOPHENONE,CC(=O)Nc1cccc(C(C)=O)c1,CC(=O)c1cccc(c1)NC(=O)C,C1(=CC(=CC=C1)NC(=O)C)C(=O)C,-1.6230000000000002
AFZULICIJRNJBU-UHFFFAOYSA-N,,CN(C)CCCCOc1ccc(Nc2cc(Nc3cc(Cl)ccc3Cl)ncn2)cc1,CN(C)CCCCOc1ccc(cc1)Nc2cc(ncn2)Nc3cc(ccc3Cl)Cl,CN(C)CCCCOC=1C=CC(=CC1)NC=2C=C(N=CN2)NC=3C=C(C=CC3Cl)Cl,-4.6197888
AFZZFBZPHUDOLV-UHFFFAOYSA-N,N-[3-(morpholin-4-yl)propyl]naphthalen-1-amine,c1ccc2c(NCCCN3CCOCC3)cccc2c1,c1ccc2c(c1)cccc2NCCCN3CCOCC3,C(CNC=1C=CC=C2C1C=CC=C2)CN3CCOCC3,-2.702901675
AFZZYIJIWUTJFO-UHFFFAOYSA-N,m-Diethylbenzene,CCc1cccc(CC)c1,CCc1cccc(c1)CC,CCC=1C=CC=C(C1)CC,-3.748
AGAHNABIDCTLHW-UHFFFAOYSA-N,"1-Butanone, 1-(4-fluorophenyl)-4-[4-hydroxy-4-(4",Cc1ccc(C2(O)CCN(CCCC(=O)c3ccc(F)cc3)CC2)cc1,Cc1ccc(cc1)C2(CCN(CC2)CCCC(=O)c3ccc(cc3)F)O,FC=1C=CC(=CC1)C(=O)CCCN2CCC(CC2)(O)C=3C=CC(=CC3)C,-4.3469999999999995
AGBQKNBQESQNJD-UHFFFAOYSA-N,5-(dithiolan-3-yl)valeric acid,O=C(O)CCCCC1CCSS1,C1CSSC1CCCCC(=O)O,OC(=O)CCCCC1CCSS1,-2.3750236680000003
AGCQZYRSTIRJFM-UHFFFAOYSA-N,"TRIETHYLENE GLYCOL, DINITRATE",O=[N+]([O-])OCCOCCOCCO[N+](=O)[O-],C(COCCO[N+](=O)[O-])OCCO[N+](=O)[O-],[N+](=O)([O-])OCCOCCOCCO[N+](=O)[O-],-1.561
AGDYNDJUZRMYRG-UHFFFAOYSA-N,1-HEXYL NITRATE,CCCCCCO[N+](=O)[O-],CCCCCCO[N+](=O)[O-],CCCCCCO[N+](=O)[O-],-3.12675
AGEFUZCBLJQXIA-UHFFFAOYSA-N,"dipropyl cyclohexane-1,2-dicarboxylate",CCCOC(=O)C1CCCCC1C(=O)OCCC,CCCOC(=O)C1CCCCC1C(=O)OCCC,CCCOC(=O)C1CCCCC1C(=O)OCCC,-3.262845867
AGFJODXNIRQIJR-UHFFFAOYSA-N,,COc1cc2c(Nc3cnc(COc4ccc(F)c(Cl)c4)nc3)ncnc2cc1OCCCN1CCCCC1,COc1cc2c(cc1OCCCN3CCCCC3)ncnc2Nc4cnc(nc4)COc5ccc(c(c5)Cl)F,COC=1C=C2C(=NC=NC2=CC1OCCCN3CCCCC3)NC=4C=NC(=NC4)COC=5C=CC(=C(C5)Cl)F,-6.2006595
AGHDITKQVPSJTE-UHFFFAOYSA-N,,COc1cc2c(Nc3cnc(C(=O)NCCc4ccccc4)nc3)ncnc2cc1OCCCN1CCOCC1,COc1cc2c(cc1OCCCN3CCOCC3)ncnc2Nc4cnc(nc4)C(=O)NCCc5ccccc5,COC=1C=C2C(=NC=NC2=CC1OCCCN3CCOCC3)NC=4C=NC(=NC4)C(=O)NCCC=5C=CC=CC5,-5.920818799999999
AGIKBILZJVNZNW-UHFFFAOYSA-N,"PROXICROMIL ANALOG III;  Cyclohexano(6,7)chromone-2-carboxylic acid",O=C(O)c1cc(=O)c2cc3c(cc2o1)CCCC3,c1c2c(cc3c1c(=O)cc(o3)C(=O)O)CCCC2,OC(=O)C1=CC(=O)C2=C(O1)C=C3C(=C2)CCCC3,-1.05
AGKBXKFWMQLFGZ-UHFFFAOYSA-N,4-methylbenzoyl 4-methylbenzene-1-carboperoxoate,Cc1ccc(C(=O)OOC(=O)c2ccc(C)cc2)cc1,Cc1ccc(cc1)C(=O)OOC(=O)c2ccc(cc2)C,CC=1C=CC(=CC1)C(=O)OOC(=O)C=2C=CC(=CC2)C,-6.798175941
AGKSTYPVMZODRV-UHFFFAOYSA-N,Imibenconazole,Clc1ccc(CS/C(Cn2cncn2)=N\c2ccc(Cl)cc2Cl)cc1,c1cc(ccc1CS/C(=N\c2ccc(cc2Cl)Cl)/Cn3cncn3)Cl,ClC=1C=CC(=CC1)CS/C(=N\C=2C=CC(=CC2Cl)Cl)/CN3C=NC=N3,-5.3839999999999995
AGMMTXLNIQSRCG-UHFFFAOYSA-N,Quinethazone,CCC1NC(=O)c2cc(S(N)(=O)=O)c(Cl)cc2N1,CCC1Nc2cc(c(cc2C(=O)N1)S(=O)(=O)N)Cl,ClC=1C(=CC2=C(C1)NC(NC2=O)CC)S(=O)(=O)N,-3.29
AGMQZFZTECJDGQ-UHFFFAOYSA-N,,NS(=O)(=O)c1ccc(-c2ccc(OCC(O)CCc3cccnc3)cc2)s1,c1cc(cnc1)CCC(COc2ccc(cc2)c3ccc(s3)S(=O)(=O)N)O,O=S(=O)(N)C1=CC=C(S1)C=2C=CC(=CC2)OCC(O)CCC=3C=CC=NC3,-6.073305
AGMYYDXMZBSALW-UHFFFAOYSA-N,,CC(C)n1c2c(c3cc(F)ccc31)CC(NC(=O)N1CCN(S(=O)(=O)N(C)C)CC1)CC2,CC(C)n1c2ccc(cc2c3c1CCC(C3)NC(=O)N4CCN(CC4)S(=O)(=O)N(C)C)F,CC(C)N1C2=C(C3=C1C=CC(=C3)F)CC(CC2)NC(=O)N4CCN(CC4)S(=O)(=O)N(C)C,-4.853872
AGNALZPVBQTXDZ-UHFFFAOYSA-N,Isopropylbarbiturate,CC(C)N1C(=O)CC(=O)NC1=O,CC(C)N1C(=O)CC(=O)NC1=O,N1(C(=O)CC(=O)NC1=O)C(C)C,-1.456
AGOYDEPGAOXOCK-UHFFFAOYSA-N,Clarithromycin,CC[C@H]1OC(=O)[C@H](C)[C@@H](O[C@H]2C[C@@](C)(OC)[C@@H](O)[C@H](C)O2)[C@H](C)[C@@H](O[C@@H]2O[C@H](C)C[C@H](N(C)C)[C@H]2O)[C@](C)(OC)C[C@@H](C)C(=O)[C@H](C)[C@@H](O)[C@]1(C)O,CC[C@@H]1[C@@]([C@@H]([C@H](C(=O)[C@@H](C[C@@]([C@@H]([C@H]([C@@H]([C@H](C(=O)O1)C)O[C@H]2C[C@@]([C@H]([C@@H](O2)C)O)(C)OC)C)O[C@H]3[C@@H]([C@H](C[C@H](O3)C)N(C)C)O)(C)OC)C)C)O)(C)O,CC[C@@H]1[C@@]([C@@H]([C@H](C(=O)[C@@H](C[C@@]([C@@H]([C@H]([C@@H]([C@H](C(=O)O1)C)O[C@H]2C[C@@]([C@H]([C@@H](O2)C)O)(C)OC)C)O[C@H]3[C@@H]([C@H](C[C@H](O3)C)N(C)C)O)(C)OC)C)C)O)(C)O,-2.2
AGUIVNYEYSCPNI-UHFFFAOYSA-N,Tetryl,CN(c1c([N+](=O)[O-])cc([N+](=O)[O-])cc1[N+](=O)[O-])[N+](=O)[O-],CN(c1c(cc(cc1[N+](=O)[O-])[N+](=O)[O-])[N+](=O)[O-])[N+](=O)[O-],CN(C=1C(=CC(=CC1[N+](=O)[O-])[N+](=O)[O-])[N+](=O)[O-])[N+](=O)[O-],-3.58895
AGUYQIWJPWNGBI-UHFFFAOYSA-N,,COc1cc2ncnc(Nc3ccc(F)c(C(F)(F)F)c3)c2cc1OCCCN1CCOCC1,COc1cc2c(cc1OCCCN3CCOCC3)c(ncn2)Nc4ccc(c(c4)C(F)(F)F)F,COC=1C=C2N=CN=C(C2=CC1OCCCN3CCOCC3)NC=4C=CC(=C(C4)C(F)(F)F)F,-5.5850267
AGVNLFCRZULMKK-UHFFFAOYSA-N,1-[4-(4-hydroxyphenyl)piperazin-1-yl]ethan-1-one,CC(=O)N1CCN(c2ccc(O)cc2)CC1,CC(=O)N1CCN(CC1)c2ccc(cc2)O,CC(=O)N1CCN(CC1)C=2C=CC(=CC2)O,-1.817957244
AGYUOJIYYGGHKV-UHFFFAOYSA-N,"1,2-BIS(2-CHLOROETHOXY)ETHANE",ClCCOCCOCCCl,C(COCCCl)OCCCl,ClCCOCCOCCCl,-0.996
AHBXXEZLRFCZSF-UHFFFAOYSA-N,,CC(C)(C)c1n[nH]c(=O)n(N)c1=O,CC(C)(C)c1c(=O)n(c(=O)[nH]n1)N,O=C1C(=NNC(=O)N1N)C(C)(C)C,-2.048
AHDSRXYHVZECER-UHFFFAOYSA-N,"2,4,6-Tris[(dimethylamino)methyl]phenol",CN(C)Cc1cc(CN(C)C)c(O)c(CN(C)C)c1,CN(C)Cc1cc(c(c(c1)CN(C)C)O)CN(C)C,CN(C)CC=1C=C(C(=C(C1)CN(C)C)O)CN(C)C,0.505508186
AHHFEZNOXOZZQA-UHFFFAOYSA-N,Ranimustine,COC1OC(CNC(=O)N(CCCl)N=O)C(O)C(O)C1O,COC1C(C(C(C(O1)CNC(=O)N(CCCl)N=O)O)O)O,O=C(NCC1OC(C(C(C1O)O)O)OC)N(CCCl)N=O,-1.561
AHHPZGUFLGCZCF-UHFFFAOYSA-N,"3-ethyl 5-methyl 4-(2-chlorophenyl)-1,4-dihydro-2-[2-(1,3-dihydro-1,3-dioxo-(2H)isoindol-2-yl)-ethoxymethyl]-6-methyl-3,5-pyridinedicarboxylate",CCOC(=O)C1=C(COCCN2C(=O)c3ccccc3C2=O)NC(C)=C(C(=O)OC)C1c1ccccc1Cl,CCOC(=O)C1=C(NC(=C(C1c2ccccc2Cl)C(=O)OC)C)COCCN3C(=O)c4ccccc4C3=O,CCOC(=O)C1=C(NC(=C(C1C=2C=CC=CC2Cl)C(=O)OC)C)COCCN3C(=O)C=4C=CC=CC4C3=O,-4.501063476000001
AHIINWLOXDJMQY-UHFFFAOYSA-N,,COc1cc2c(Nc3cnc(NC(=O)c4cccc(Cl)c4)nc3)ncnc2cc1OCC(O)CNC1CCCCC1,COc1cc2c(cc1OCC(CNC3CCCCC3)O)ncnc2Nc4cnc(nc4)NC(=O)c5cccc(c5)Cl,COC=1C=C2C(=NC=NC2=CC1OCC(O)CNC3CCCCC3)NC=4C=NC(=NC4)NC(=O)C=5C=CC=C(C5)Cl,-5.7447275
AHIPJALLQVEEQF-UHFFFAOYSA-N,"4-(oxiran-2-ylmethoxy)-N,N-bis(oxiran-2-ylmethyl)aniline",c1cc(N(CC2CO2)CC2CO2)ccc1OCC1CO1,c1cc(ccc1N(CC2CO2)CC3CO3)OCC4CO4,C1OC1COC=2C=CC(=CC2)N(CC3CO3)CC4CO4,-1.919117363
AHJKRLASYNVKDZ-UHFFFAOYSA-N,"p,pť-ddd",Clc1ccc(C(c2ccc(Cl)cc2)C(Cl)Cl)cc1,c1cc(ccc1C(c2ccc(cc2)Cl)C(Cl)Cl)Cl,ClC1=CC=C(C=C1)C(C2=CC=C(C=C2)Cl)C(Cl)Cl,-7.2
AHOUBRCZNHFOSL-UHFFFAOYSA-N,paroxetine hydrochloride,Fc1ccc([C@@H]2CCNC[C@H]2COc2ccc3c(c2)OCO3)cc1,c1cc(ccc1[C@@H]2CCNC[C@H]2COc3ccc4c(c3)OCO4)F,C1CNC[C@H]([C@@H]1C2=CC=C(C=C2)F)COC3=CC4=C(C=C3)OCO4,-1.8308855569999998
AHPPMJNZFROCCT-UHFFFAOYSA-N,,COc1cc2ncnc(Nc3ccc(F)c(Cl)c3)c2cc1OC1CCN(C)CC1,CN1CCC(CC1)Oc2cc3c(cc2OC)ncnc3Nc4ccc(c(c4)Cl)F,COC=1C=C2N=CN=C(C2=CC1OC3CCN(CC3)C)NC=4C=CC(=C(C4)Cl)F,-4.0
AHSNWUAHWPTIFM-UHFFFAOYSA-N,ACETAMINOPHEN  BUTYRATE,CCCC(=O)Oc1ccc(NC(C)=O)cc1,CCCC(=O)Oc1ccc(cc1)NC(=O)C,CCCC(=O)OC1=CC=C(C=C1)NC(=O)C,-2.83
AHTPATJNIAFOLR-UHFFFAOYSA-N,thifensulfuron-methyl,COC(=O)c1sccc1S(=O)(=O)NC(=O)Nc1nc(C)nc(OC)n1,Cc1nc(nc(n1)OC)NC(=O)NS(=O)(=O)c2ccsc2C(=O)OC,S(=O)(=O)(C1=C(SC=C1)C(=O)OC)NC(=O)NC2=NC(=NC(=N2)C)OC,-2.2379
AHVVJKXNOSUQTK-UHFFFAOYSA-N,,CS(=O)(=O)n1c2c(c3cc(NC(=O)Cn4cncn4)ccc31)CCCC2,CS(=O)(=O)n1c2ccc(cc2c3c1CCCC3)NC(=O)Cn4cncn4,CS(=O)(=O)N1C2=C(C3=C1C=CC(=C3)NC(=O)CN4C=NC=N4)CCCC2,-4.5086383
AHYLFQRWOBJBTE-UHFFFAOYSA-N,4-(PROPOXYCARBONYLOXY)ACETANILIDE,CCCOC(=O)Oc1ccc(NC(C)=O)cc1,CCCOC(=O)Oc1ccc(cc1)NC(=O)C,CCCOC(=O)OC1=CC=C(C=C1)NC(=O)C,-2.57
AHZMUXQJTGRNHT-UHFFFAOYSA-N,4-{2-[4-(cyanooxy)phenyl]propan-2-yl}phenyl cyanate,CC(C)(c1ccc(OC#N)cc1)c1ccc(OC#N)cc1,CC(C)(c1ccc(cc1)OC#N)c2ccc(cc2)OC#N,CC(C)(C=1C=CC(=CC1)OC#N)C=2C=CC(=CC2)OC#N,-5.469779189
AICNKNRAKIUTRB-UHFFFAOYSA-N,,COc1cc2c(Nc3ccc(NC(=O)c4cccc(Cl)c4)nc3)ncnc2cc1OCCCNCC(O)CO,COc1cc2c(cc1OCCCNCC(CO)O)ncnc2Nc3ccc(nc3)NC(=O)c4cccc(c4)Cl,COC=1C=C2C(=NC=NC2=CC1OCCCNCC(O)CO)NC=3C=CC(=NC3)NC(=O)C=4C=CC=C(C4)Cl,-6.2572749000000005
AIECTDFNEKOKPX-UHFFFAOYSA-N,,c1ccc2c(c1)OCc1cnc(-c3ccncc3)nc1-2,c1ccc2c(c1)-c3c(cnc(n3)c4ccncc4)CO2,C=1C=NC=CC1C=2N=CC3=C(N2)C4=C(C=CC=C4)OC3,-5.286779
AIFRHYZBTHREPW-UHFFFAOYSA-N,"9H-PYRIDO[3,4-B]INDOLE",c1ccc2c(c1)[nH]c1cnccc12,c1ccc2c(c1)c3ccncc3[nH]2,C1=CC2=C(C=C1)C3=C(N2)C=NC=C3,-3.73
AIGGXYFGBULEMC-UHFFFAOYSA-N,,O=C(COc1ccc(C(=O)O)cc1)COc1ccc(-c2noc(CCCOc3ccccc3)n2)cc1,c1ccc(cc1)OCCCc2nc(no2)c3ccc(cc3)OCC(=O)COc4ccc(cc4)C(=O)O,OC(=O)C=1C=CC(=CC1)OCC(=O)COC=2C=CC(=CC2)C3=NOC(=N3)CCCOC=4C=CC=CC4,-4.967875299999999
AIGRXSNSLVJMEA-UHFFFAOYSA-N,epn; o-ethyl o-(4-nitrophenyl)phenylphosphonothionate,CCOP(=S)(Oc1ccc([N+](=O)[O-])cc1)c1ccccc1,CCOP(=S)(c1ccccc1)Oc2ccc(cc2)[N+](=O)[O-],P(=S)(OC=1C=CC(=CC1)[N+](=O)[O-])(C=2C=CC=CC2)OCC,-5.0169999999999995
AIKAOGTVMFOQKJ-UHFFFAOYSA-N,"Propanoic acid, 2-methyl-, 4-nitrophenyl ester",CC(C)C(=O)Oc1ccc([N+](=O)[O-])cc1,CC(C)C(=O)Oc1ccc(cc1)[N+](=O)[O-],[N+](=O)(C=1C=CC(=CC1)OC(=O)C(C)C)[O-],-3.9589
AIKKULXCBHRFOS-UHFFFAOYSA-N,Formothion,COP(=S)(OC)SCC(=O)N(C)C=O,CN(C=O)C(=O)CSP(=S)(OC)OC,S=P(SCC(=O)N(C=O)C)(OC)OC,-1.9954
AIMLHWJJJNSFLF-UHFFFAOYSA-N,diphenhydramine,CC1CCC2CC(F)CC3C(=O)C(C(=O)O)=CN1C23,CC1CCC2CC(CC3C2N1C=C(C3=O)C(=O)O)F,C12C3C(CC(C1)F)CCC(N3C=C(C2=O)C(=O)O)C,-2.946
AIMMSOZBPYFASU-UHFFFAOYSA-M,,COc1cc(OC)nc(NC(=O)[N-]S(=O)(=O)c2ncccc2OCC(F)(F)F)n1,COc1cc(nc(n1)NC(=O)[N-]S(=O)(=O)c2c(cccn2)OCC(F)(F)F)OC,O=C(NC1=NC(=CC(=N1)OC)OC)[N-]S(=O)(=O)C2=NC=CC=C2OCC(F)(F)F,-1.252
AIOHBDYXYKMBIF-UHFFFAOYSA-N,"3-isopentyloxy-propane-1,2-diol",CC(C)CCOCC(O)CO,CC(C)CCOCC(CO)O,CC(C)CCOCC(O)CO,-1.21005
AIPJJIWCGDAFJM-UHFFFAOYSA-N,,CCn1c2ccc(NC(=O)N3CCOCC3)cc2c2cccnc21,CCn1c2ccc(cc2c3c1nccc3)NC(=O)N4CCOCC4,CCN1C=2C=CC(=CC2C3=C1N=CC=C3)NC(=O)N4CCOCC4,-3.7958800000000004
AIQRYZQCYZPJLI-UHFFFAOYSA-N,,CC(CSc1cccc(NC(=O)Cc2ccc3nc(Nc4ccccc4)oc3c2)c1)CC(=O)O,CC(CC(=O)O)CSc1cccc(c1)NC(=O)Cc2ccc3c(c2)oc(n3)Nc4ccccc4,CC(CSC=1C=CC=C(C1)NC(=O)CC=2C=CC=3N=C(OC3C2)NC=4C=CC=CC4)CC(=O)O,-3.6382722000000003
AISUIUPQHGHDCK-UHFFFAOYSA-N,,O=C(NC(c1ccccc1)C1CC1)OCCCc1cnc[nH]1,c1ccc(cc1)C(C2CC2)NC(=O)OCCCc3cnc[nH]3,O(C(=O)NC(C1CC1)C2=CC=CC=C2)CCCC=3NC=NC3,0.07299
AISZOMRXKKCPIS-UHFFFAOYSA-N,,CCOC(=O)CSP(=S)(OCC)OCC,CCOC(=O)CSP(=S)(OCC)OCC,P(=S)(SCC(=O)OCC)(OCC)OCC,-3.596
AIUHRQHVWSUTGJ-UHFFFAOYSA-N,Thiopropazate,CC(=O)OCCN1CCN(CCCN2c3ccccc3Sc3ccc(Cl)cc32)CC1,CC(=O)OCCN1CCN(CC1)CCCN2c3ccccc3Sc4c2cc(cc4)Cl,CC(=O)OCCN1CCN(CC1)CCCN2C=3C=CC=CC3SC4=C2C=C(C=C4)Cl,-4.7
AIUNWFBYULOSRS-UHFFFAOYSA-N,"Benzeneacetic acid, .alpha.-[(carboxymethyl)thio",O=C(O)CSC(C(=O)O)c1ccccc1,c1ccc(cc1)C(C(=O)O)SCC(=O)O,OC(=O)CSC(C(=O)O)C=1C=CC=CC1,-1.1905
AIWAFUBJIYAIGI-UHFFFAOYSA-N,N-[2-(butanoylamino)ethyl]butanamide,CCCC(=O)NCCNC(=O)CCC,CCCC(=O)NCCNC(=O)CCC,CCCC(=O)NCCNC(=O)CCC,-0.622
AIXZBGVLNVRQSS-UHFFFAOYSA-N,"5-tert-butyl-2-[5-(5-tert-butyl-1,3-benzoxazol-2-yl)thiophen-2-yl]-1,3-benzoxazole",CC(C)(C)c1ccc2oc(-c3ccc(-c4nc5cc(C(C)(C)C)ccc5o4)s3)nc2c1,CC(C)(C)c1ccc2c(c1)nc(o2)c3ccc(s3)c4nc5cc(ccc5o4)C(C)(C)C,CC(C)(C)C=1C=CC=2OC(=NC2C1)C=3SC(=CC3)C=4OC=5C=CC(=CC5N4)C(C)(C)C,-5.6340467929999996
AIYXCALCYCIJQT-UHFFFAOYSA-N,,CC(CC(CS(=O)(=O)N1CCN(c2ccc(Cl)cc2)CC1)N(O)C=O)c1ccccc1,CC(CC(CS(=O)(=O)N1CCN(CC1)c2ccc(cc2)Cl)N(C=O)O)c3ccccc3,CC(CC(CS(=O)(=O)N1CCN(CC1)C=2C=CC(=CC2)Cl)N(O)C=O)C=3C=CC=CC3,-4.9586073
AIZPFZIKHIJCQX-UHFFFAOYSA-N,"4-(2-{2-amino-4-oxo-3H,4H,7H-pyrrolo[2,3-d]pyrimidin-5-yl}ethyl)benzoic acid",Nc1nc2[nH]cc(CCc3ccc(C(=O)O)cc3)c2c(=O)[nH]1,c1cc(ccc1CCc2c[nH]c3c2c(=O)[nH]c(n3)N)C(=O)O,NC1=NC=2NC=C(C2C(=O)N1)CCC=3C=CC(=CC3)C(=O)O,-3.574289037
AIZUDRGYZABYNJ-UHFFFAOYSA-N,,NS(=O)(=O)c1ccc(-c2cc3cc([N+](=O)[O-])ccc3o2)cc1,c1cc(ccc1c2cc3cc(ccc3o2)[N+](=O)[O-])S(=O)(=O)N,NS(=O)(=O)C=1C=CC(=CC1)C2=CC=3C=C(C=CC3O2)[N+](=O)[O-],-5.467106299999999
AJFHRQHLDMJYPV-UHFFFAOYSA-N,,COc1cc2c(Oc3ccc4[nH]cc(C)c4c3)ncnc2cc1OCCCN1CCCCC1,Cc1c[nH]c2c1cc(cc2)Oc3c4cc(c(cc4ncn3)OCCCN5CCCCC5)OC,COC=1C=C2C(=NC=NC2=CC1OCCCN3CCCCC3)OC=4C=CC=5NC=C(C5C4)C,-3.0757207
AJGYLNFUYLRZFR-UHFFFAOYSA-N,"1-methyl-cyclohexane-1,2,3,4,5,6-hexaol",CC1(O)C(O)C(O)C(O)C(O)C1O,CC1(C(C(C(C(C1O)O)O)O)O)O,OC1C(C(C(C(C1O)O)O)O)(C)O,-1.655
AJHCSUXXECOXOY-UHFFFAOYSA-N,Glycyl-L-tryptophan,NCC(=O)NC(Cc1c[nH]c2ccccc12)C(=O)O,c1ccc2c(c1)c(c[nH]2)CC(C(=O)O)NC(=O)CN,C(=O)(C(NC(=O)CN)CC1=CNC=2C1=CC=CC2)O,-1.886
AJJGRBMYVRSEES-UHFFFAOYSA-N,"O1,O3-Diisopropyl-glycerol",CC(C)OCC(O)COC(C)C,CC(C)OCC(COC(C)C)O,CC(C)OCC(O)COC(C)C,0.0549
AJKPEFDTLIRXFV-UHFFFAOYSA-N,,COc1cc2ncnc(Nc3ccc4c(c3)C=CS4(=O)=O)c2cc1OCCCN1CCOCC1,COc1cc2c(cc1OCCCN3CCOCC3)c(ncn2)Nc4ccc5c(c4)C=CS5(=O)=O,COC=1C=C2N=CN=C(C2=CC1OCCCN3CCOCC3)NC=4C=CC5=C(C4)C=CS5(=O)=O,-3.7447275
AJLFOPYRIVGYMJ-UHFFFAOYSA-N,MEVASTATIN,CC[C@H](C)C(=O)O[C@H]1CCC=C2C=C[C@H](C)[C@H](CC[C@@H]3C[C@@H](O)CC(=O)O3)[C@H]21,CC[C@H](C)C(=O)O[C@H]1CCC=C2[C@H]1[C@H]([C@H](C=C2)C)CC[C@@H]3C[C@H](CC(=O)O3)O,CC[C@H](C)C(=O)O[C@H]1CCC=C2[C@H]1[C@H]([C@H](C=C2)C)CC[C@@H]3C[C@H](CC(=O)O3)O,-5.42
AJMJPGWUPHIMKQ-UHFFFAOYSA-N,"Butanoic acid, 1,2-ethanediylbis(oxy-2,1-ethaned",CCCC(=O)OCCOCCOCCOC(=O)CCC,CCCC(=O)OCCOCCOCCOC(=O)CCC,CCCC(=O)OCCOCCOCCOC(=O)CCC,-1.5599
AJMNDPOSKIBVGX-UHFFFAOYSA-N,4-(PHENYLAZO)BENZENESULFONIC ACID,O=S(=O)(O)c1ccc(/N=N/c2ccccc2)cc1,c1ccc(cc1)/N=N/c2ccc(cc2)S(=O)(=O)O,S(=O)(=O)(C1=CC=C(C=C1)/N=N/C2=CC=CC=C2)O,-0.6706
AJPWEDMZEXHWTK-UHFFFAOYSA-N,,COc1ccc(Oc2nc(Nc3ccc(C(=O)NCCN4CCOCC4)cc3)ncc2F)cc1,COc1ccc(cc1)Oc2c(cnc(n2)Nc3ccc(cc3)C(=O)NCCN4CCOCC4)F,COC=1C=CC(=CC1)OC=2N=C(N=CC2F)NC=3C=CC(=CC3)C(=O)NCCN4CCOCC4,-4.4814861
AJQWDXBNKBGOHB-UHFFFAOYSA-N,,CCn1c2ccccc2c2cc(Nc3ccc(C(N)=O)nn3)ccc21,CCn1c2ccccc2c3c1ccc(c3)Nc4ccc(nn4)C(=O)N,CCN1C=2C=CC=CC2C3=C1C=CC(=C3)NC=4C=CC(=NN4)C(=O)N,-5.69897
AJVBPNRMKNARPG-UHFFFAOYSA-N,"BENZAMIDE, 3-(AMINOSULFONYL)-",NC(=O)c1cccc(S(N)(=O)=O)c1,c1cc(cc(c1)S(=O)(=O)N)C(=O)N,S(=O)(=O)(C1=CC(=CC=C1)C(=O)N)N,-2.1554
AJWHQEKVIAEOBU-UHFFFAOYSA-N,NAPROXEN-DERIVAT 3 I,COc1ccc2cc(C(C)C(=O)OC(C)OC(=O)C(N)Cc3ccccc3)ccc2c1,CC(c1ccc2cc(ccc2c1)OC)C(=O)OC(C)OC(=O)C(Cc3ccccc3)N,COC1=CC=C2C=C(C=CC2=C1)C(C)C(=O)OC(C)OC(=O)C(N)CC3=CC=CC=C3,-3.5
AJXPJJZHWIXJCJ-UHFFFAOYSA-N,methsuximide,CN1C(=O)CC(C)(c2ccccc2)C1=O,CC1(CC(=O)N(C1=O)C)c2ccccc2,CC1(CC(=O)N(C1=O)C)C2=CC=CC=C2,-1.860851155
AJYOOHCNOXWTKJ-UHFFFAOYSA-N,"BENZENEMETHANOL, 4-CHLORO-.ALPHA.-PHENYL-",OC(c1ccccc1)c1ccc(Cl)cc1,c1ccc(cc1)C(c2ccc(cc2)Cl)O,OC(C=1C=CC=CC1)C=2C=CC(=CC2)Cl,-3.489
AJZKMDAYNXJZOR-UHFFFAOYSA-N,"1(3H)-Isobenzofuranone, 6-amino-3-methyl-",CC1OC(=O)c2cc(N)ccc21,CC1c2ccc(cc2C(=O)O1)N,CC1OC(=O)C2=C1C=CC(=C2)N,-1.78905
AKAGTKIUVUVFOZ-UHFFFAOYSA-N,,O=C(COc1ccc(OCCCCCC(O)CO)cc1)COc1ccc(C(=O)O)cc1,c1cc(ccc1C(=O)O)OCC(=O)COc2ccc(cc2)OCCCCCC(CO)O,OCC(O)CCCCCOC=1C=CC(=CC1)OCC(=O)COC=2C=CC(=CC2)C(=O)O,-2.5945622999999998
AKAIJEJJHMFQHV-UHFFFAOYSA-N,,CC(C)CNS(=O)(=O)c1ccc(NC(=O)C(C)(O)C(F)(F)F)c(Cl)c1N1CCN(C)CC1,CC(C)CNS(=O)(=O)c1ccc(c(c1N2CCN(CC2)C)Cl)NC(=O)C(C)(C(F)(F)F)O,CC(C)CNS(=O)(=O)C=1C=CC(=C(C1N2CCN(CC2)C)Cl)NC(=O)C(C)(O)C(F)(F)F,-4.5451551
AKCCDHTXQNJNKH-UHFFFAOYSA-N,,C=CCOCC1CN(C(=O)Nc2ccc3c(c2)-c2ccccc2S3(=O)=O)CCO1,C=CCOCC1CN(CCO1)C(=O)Nc2ccc3c(c2)-c4ccccc4S3(=O)=O,C=CCOCC1CN(CCO1)C(=O)NC=2C=CC3=C(C2)C=4C=CC=CC4S3(=O)=O,-4.0655015
AKDVWLWCMPWWKU-UHFFFAOYSA-N,,COc1ccc(Oc2nc(Nc3ccc(C(=O)NCCCN4CCCC4)cc3)ncc2Br)cc1,COc1ccc(cc1)Oc2c(cnc(n2)Nc3ccc(cc3)C(=O)NCCCN4CCCC4)Br,COC=1C=CC(=CC1)OC=2N=C(N=CC2Br)NC=3C=CC(=CC3)C(=O)NCCCN4CCCC4,-4.79588
AKEUNCKRJATALU-UHFFFAOYSA-N,"2,6-Dihydroxybenzoic Acid",O=C(O)c1c(O)cccc1O,c1cc(c(c(c1)O)C(=O)O)O,OC(=O)C=1C(=CC=CC1O)O,-1.207
AKFZINZSGJYCMM-UHFFFAOYSA-N,N4-[2-(NICOTINOYLAMINO)PYRIMIDIN-4-YL]SULFANILAMIDE;  2-(Nicotinoylamino)-4-(4-sulfamoylphenylamino)pyrimidine,NS(=O)(=O)c1ccc(Nc2ccnc(NC(=O)c3cccnc3)n2)cc1,c1cc(cnc1)C(=O)Nc2nccc(n2)Nc3ccc(cc3)S(=O)(=O)N,NS(=O)(=O)C1=CC=C(C=C1)NC2=NC(=NC=C2)NC(=O)C3=CC=CN=C3,-1.27
AKGDSWMIOYIOPK-UHFFFAOYSA-N,,O=C(c1ccc(-n2ccnc2)cc1)N1CCN(S(=O)(=O)c2ccc3cc(Br)ccc3c2)CC1,c1cc(ccc1C(=O)N2CCN(CC2)S(=O)(=O)c3ccc4cc(ccc4c3)Br)n5ccnc5,BrC=1C=CC=2C=C(C=CC2C1)S(=O)(=O)N3CCN(CC3)C(=O)C=4C=CC(=CC4)N5C=CN=C5,-7.0
AKGGYBADQZYZPD-UHFFFAOYSA-N,4-Phenylbutan-2-one,CC(=O)CCc1ccccc1,CC(=O)CCc1ccccc1,CC(=O)CCC=1C=CC=CC1,-1.7160089980000002
AKIIJALHGMKJEJ-UHFFFAOYSA-N,2-Methylcyclohexyl acetate,CC(=O)OC1CCCCC1C,CC1CCCCC1OC(=O)C,CC1CCCCC1OC(=O)C,-2.550148929
AKLDPNVZTZIVFA-UHFFFAOYSA-N,"2-amino-4,5-dichlorobenzenesulfonic acid",Nc1cc(Cl)c(Cl)cc1S(=O)(=O)O,c1c(c(cc(c1Cl)Cl)S(=O)(=O)O)N,NC=1C=C(C(=CC1S(=O)(=O)O)Cl)Cl,-2.1051053459999998
AKLIYCJZHPSMMA-UHFFFAOYSA-N,7H-Purin-6-ylsulfanylmethyl pentanoate,CCCCCC(=O)OCSc1ncnc2[nH]cnc12,CCCCCC(=O)OCSc1c2c([nH]cn2)ncn1,CCCCCC(=O)OCSC1=NC=NC2=C1N=CN2,-3.622
AKLOLDQYWQAREW-UHFFFAOYSA-N,"3,4-dinitrophenol",O=[N+]([O-])c1ccc(O)cc1[N+](=O)[O-],c1cc(c(cc1O)[N+](=O)[O-])[N+](=O)[O-],C=1(C(=CC=C(C1)O)[N+](=O)[O-])[N+](=O)[O-],-0.4833