inchikey,Name,SMILES_stand,SMILES,kekSmiles,logS
IAXKZKGSGVIKAU-UHFFFAOYSA-N,,COCCC(=O)N1CCN(S(=O)(=O)c2ccc(NC(=O)C(C)(O)C(F)(F)F)c(Cl)c2)CC1,CC(C(=O)Nc1ccc(cc1Cl)S(=O)(=O)N2CCN(CC2)C(=O)CCOC)(C(F)(F)F)O,COCCC(=O)N1CCN(CC1)S(=O)(=O)C=2C=CC(=C(C2)Cl)NC(=O)C(C)(O)C(F)(F)F,-3.0
IAXXETNIOYFMLW-UHFFFAOYSA-N,"(1S,2S,4S)-1,7,7-trimethylbicyclo[2.2.1]heptan-2-yl 2-methylprop-2-enoate",C=C(C)C(=O)OC1CC2CCC1(C)C2(C)C,CC(=C)C(=O)OC1CC2CCC1(C2(C)C)C,CC(=C)C(=O)OC1CC2CCC1(C2(C)C)C,-4.544220436
IBABXJRXGSAJLQ-UHFFFAOYSA-N,"1,4-bis[(2,6-diethyl-4-methylphenyl)amino]-9,10-dihydroanthracene-9,10-dione",CCc1cc(C)cc(CC)c1Nc1ccc(Nc2c(CC)cc(C)cc2CC)c2c1C(=O)c1ccccc1C2=O,CCc1cc(cc(c1Nc2ccc(c3c2C(=O)c4ccccc4C3=O)Nc5c(cc(cc5CC)C)CC)CC)C,CCC=1C=C(C=C(C1NC=2C=CC(=C3C2C(=O)C4=C(C=CC=C4)C3=O)NC=5C(=CC(=CC5CC)C)CC)CC)C,-7.423914456
IBAQFPQHRJAVAV-UHFFFAOYSA-N,miglitol,OCCN1C[C@H](O)[C@@H](O)[C@H](O)[C@H]1CO,C1[C@@H]([C@H]([C@@H]([C@H](N1CCO)CO)O)O)O,C1[C@@H]([C@H]([C@@H]([C@H](N1CCO)CO)O)O)O,0.468898166
IBBJNICVTQDVRV-UHFFFAOYSA-N,,COc1cc2c(Nc3cc(-c4ccc(Cl)cc4)[nH]n3)ncnc2cc1OCC1CCN(C)CC1,CN1CCC(CC1)COc2cc3c(cc2OC)c(ncn3)Nc4cc([nH]n4)c5ccc(cc5)Cl,COC=1C=C2C(=NC=NC2=CC1OCC3CCN(CC3)C)NC=4C=C(NN4)C=5C=CC(=CC5)Cl,-4.3372421999999995
IBBKOCWLTCNYDG-UHFFFAOYSA-N,,CC1CCCCOC(CN(C)C(=O)Nc2ccc3c(c2)OCO3)C(C)CN(C(C)CO)C(=O)c2cc(NS(=O)(=O)c3cn(C)cn3)ccc2O1,CC1CCCCOC(C(CN(C(=O)c2cc(ccc2O1)NS(=O)(=O)c3cn(cn3)C)C(C)CO)C)CN(C)C(=O)Nc4ccc5c(c4)OCO5,CC(CO)N1CC(C(OCCCCC(OC2=CC=C(C=C2C1=O)NS(=O)(=O)C3=CN(C=N3)C)C)CN(C)C(=O)NC4=CC=C5C(=C4)OCO5)C,-4.066
IBCDULLCLULASH-UHFFFAOYSA-N,N-(4-Chlorophenyl)-n-hydroxy-4-methylbenzamide,Cc1ccc(C(=O)N(O)c2ccc(Cl)cc2)cc1,Cc1ccc(cc1)C(=O)N(c2ccc(cc2)Cl)O,N(C(=O)C1=CC=C(C=C1)C)(C2=CC=C(C=C2)Cl)O,-4.419
IBCWPLTUVYKUEG-UHFFFAOYSA-N,,O=C(O)CC(CCc1cccc(NC(=O)Cc2ccc3nc(Nc4ccccc4)oc3c2)c1)c1ccc2c(c1)OCO2,c1ccc(cc1)Nc2nc3ccc(cc3o2)CC(=O)Nc4cccc(c4)CCC(CC(=O)O)c5ccc6c(c5)OCO6,OC(=O)CC(CCC=1C=CC=C(C1)NC(=O)CC=2C=CC=3N=C(OC3C2)NC=4C=CC=CC4)C=5C=CC6=C(C5)OCO6,-4.79588
IBDVWXAVKPRHCU-UHFFFAOYSA-N,2-[(2-methylprop-2-enoyl)oxy]ethyl 3-oxobutanoate,C=C(C)C(=O)OCCOC(=O)CC(C)=O,CC(=C)C(=O)OCCOC(=O)CC(=O)C,CC(=O)CC(=O)OCCOC(=O)C(=C)C,-1.063841103
IBGBGRVKPALMCQ-UHFFFAOYSA-N,"3,4-Dihydroxybenzaldehyde",O=Cc1ccc(O)c(O)c1,c1cc(c(cc1C=O)O)O,OC=1C=CC(=CC1O)C=O,-0.441
IBJFDPDRPSFKKM-UHFFFAOYSA-N,,CN(CCNCc1cc(C(C)(C)C)cc(Br)c1O)CCNC(=O)c1nccnc1N,CC(C)(C)c1cc(c(c(c1)Br)O)CNCCN(C)CCNC(=O)c2c(nccn2)N,CN(CCNCC=1C=C(C=C(C1O)Br)C(C)(C)C)CCNC(=O)C=2N=CC=NC2N,-3.3098039
IBKQQKPQRYUGBJ-UHFFFAOYSA-N,"Ethanone, 1-(3,4,5-trihydroxyphenyl)-",CC(=O)c1cc(O)c(O)c(O)c1,CC(=O)c1cc(c(c(c1)O)O)O,CC(=O)C=1C=C(C(=C(C1)O)O)O,-1.47105
IBLKWZIFZMJLFL-UHFFFAOYSA-N,1-phenoxypropan-2-ol,CC(O)COc1ccccc1,CC(COc1ccccc1)O,O(C1=CC=CC=C1)CC(O)C,-1.141
IBNZTAMUWGLESW-UHFFFAOYSA-N,,O=C(NCCSCc1c(F)cccc1Cl)c1cccc(F)c1,c1cc(cc(c1)F)C(=O)NCCSCc2c(cccc2Cl)F,FC=1C=CC=C(C1)C(=O)NCCSCC=2C(=CC=CC2Cl)F,-4.920818799999999
IBNZYJXCMBEJQK-UHFFFAOYSA-N,,C=C(C)COc1ccc(Br)cc1CN(CC)c1ccc(C(=O)NS(=O)(=O)c2c(C)noc2C)nn1,CCN(Cc1cc(ccc1OCC(=C)C)Br)c2ccc(nn2)C(=O)NS(=O)(=O)c3c(noc3C)C,CCN(CC=1C=C(C=CC1OCC(=C)C)Br)C=2C=CC(=NN2)C(=O)NS(=O)(=O)C=3C(=NOC3C)C,-3.8601209
IBOFVQJTBBUKMU-UHFFFAOYSA-N,"4,4'-METHYLENEBIS(2-CHLOROANILINE)",Nc1ccc(Cc2ccc(N)c(Cl)c2)cc1Cl,c1cc(c(cc1Cc2ccc(c(c2)Cl)N)Cl)N,NC=1C=CC(=CC1Cl)CC=2C=CC(=C(C2)Cl)N,-4.284
IBOMDJXDECXQMM-UHFFFAOYSA-N,,O=C1NC(c2ccccc2)COCc2cn(nn2)CCC1Cc1cccc(Cl)c1,c1ccc(cc1)C2COCc3cn(nn3)CCC(C(=O)N2)Cc4cccc(c4)Cl,ClC1=CC=CC(=C1)CC2CCN3C=C(N=N3)COCC(NC2=O)C4=CC=CC=C4,-4.62
IBOVTBANDDSIMT-UHFFFAOYSA-N,,N#Cc1cnc(Nc2ccc(S(=O)(=O)NC3CC3)cc2)nc1N,c1cc(ccc1Nc2ncc(c(n2)N)C#N)S(=O)(=O)NC3CC3,NC=1N=C(N=CC1C#N)NC=2C=CC(=CC2)S(=O)(=O)NC3CC3,-5.387216099999999
IBPFDTBQAMYTIU-UHFFFAOYSA-N,"3-[(E)-4-[[5,6-di(phenyl)-1,2,4-triazin-3-yl]sulfanyl]but-2-enyl]sulfanyl-5,6-di(phenyl)-1,2,4-triazine",C(=C/CSc1nnc(-c2ccccc2)c(-c2ccccc2)n1)\CSc1nnc(-c2ccccc2)c(-c2ccccc2)n1,c1ccc(cc1)c2c(nnc(n2)SC/C=C/CSc3nc(c(nn3)c4ccccc4)c5ccccc5)c6ccccc6,C(SC=1N=NC(=C(N1)C=2C=CC=CC2)C=3C=CC=CC3)/C=C/CSC=4N=NC(=C(N4)C=5C=CC=CC5)C=6C=CC=CC6,-7.025062778
IBQHDBZMXPNKAU-UHFFFAOYSA-N,,COCCOc1cc2ncnc(Nc3ncc(CC(=O)Nc4cccc(F)c4)s3)c2cc1OC,COCCOc1cc2c(cc1OC)c(ncn2)Nc3ncc(s3)CC(=O)Nc4cccc(c4)F,COCCOC=1C=C2N=CN=C(C2=CC1OC)NC3=NC=C(S3)CC(=O)NC=4C=CC=C(C4)F,-6.2218487
IBQREHJPMPCXQA-UHFFFAOYSA-N,,CCOC(=O)c1cc([N+](=O)[O-])cc([N+](=O)[O-])c1,CCOC(=O)c1cc(cc(c1)[N+](=O)[O-])[N+](=O)[O-],CCOC(=O)C1=CC(=CC(=C1)[N+](=O)[O-])[N+](=O)[O-],-3.01
IBRBMZRLVYKVRF-UHFFFAOYSA-N,"2,4,5-TRICHLORONITROBENZENE",O=[N+]([O-])c1cc(Cl)c(Cl)cc1Cl,c1c(c(cc(c1Cl)Cl)Cl)[N+](=O)[O-],O=[N+]([O-])C=1C=C(C(=CC1Cl)Cl)Cl,-3.887
IBSNJPJRDXEITQ-UHFFFAOYSA-N,1-(2-CHLOROETHOXYCARBONYL)-5-FLUOROURACIL,O=C(OCCCl)n1cc(F)c(=O)[nH]c1=O,c1c(c(=O)[nH]c(=O)n1C(=O)OCCCl)F,FC1=CN(C(=O)NC1=O)C(=O)OCCCl,-1.91
IBSNKSODLGJUMQ-UHFFFAOYSA-N,,CO/C=C(\C(=O)OC)c1ccccc1COc1cccc(C(F)(F)F)n1,CO/C=C(/c1ccccc1COc2cccc(n2)C(F)(F)F)\C(=O)OC,FC(F)(F)C1=NC(=CC=C1)OCC2=CC=CC=C2/C(=C/OC)/C(=O)OC,-5.074
IBUVVTIRLMVASK-UHFFFAOYSA-N,"Naproxen (N,N-dimethylcarbamoyl)methyl ester",COc1ccc2cc(C(C)C(=O)OCC(=O)N(C)C)ccc2c1,CC(c1ccc2cc(ccc2c1)OC)C(=O)OCC(=O)N(C)C,COC1=CC=C2C=C(C=CC2=C1)C(C)C(=O)OCC(=O)N(C)C,-4.9
IBVAQQYNSHJXBV-UHFFFAOYSA-N,Hexanedihydrazide,NNC(=O)CCCCC(=O)NN,C(CCC(=O)NN)CC(=O)NN,NNC(=O)CCCCC(=O)NN,-0.232478976
IBVPVTPPYGGAEL-UHFFFAOYSA-N,"1,3-bis(prop-1-en-2-yl)benzene",C=C(C)c1cccc(C(=C)C)c1,CC(=C)c1cccc(c1)C(=C)C,CC(=C)C=1C=CC=C(C1)C(=C)C,-4.4510696130000005
IBXPYPUJPLLOIN-UHFFFAOYSA-N,"DIMETRIDAZOLE;  1,2-DIMETHYL-5-NITROIMIDAZOLE",Cc1ncc([N+](=O)[O-])n1C,Cc1ncc(n1C)[N+](=O)[O-],CN1C(=NC=C1[N+](=O)[O-])C,-1.0236
IBYJZGVRSZPNDR-UHFFFAOYSA-N,,Cc1ccc(Nc2ccc3c(c2)c2ccccc2n3CC(F)(F)F)nn1,Cc1ccc(nn1)Nc2ccc3c(c2)c4ccccc4n3CC(F)(F)F,CC=1C=CC(=NN1)NC=2C=CC=3N(C=4C=CC=CC4C3C2)CC(F)(F)F,-5.7447275
IBZZDPVVVSNQOY-UHFFFAOYSA-N,Chloromethiuron,Cc1cc(Cl)ccc1NC(=S)N(C)C,Cc1cc(ccc1NC(=S)N(C)C)Cl,CN(C)C(=S)NC=1C=CC(=CC1C)Cl,-3.6602
ICBGKBHEJZMQMH-UHFFFAOYSA-N,,COc1cc2ncnc(Nc3ccc(F)c(Cl)c3)c2cc1OCC(O)CNCCO,COc1cc2c(cc1OCC(CNCCO)O)c(ncn2)Nc3ccc(c(c3)Cl)F,COC=1C=C2N=CN=C(C2=CC1OCC(O)CNCCO)NC=3C=CC(=C(C3)Cl)F,-3.0315171000000003
ICBJPEODPVMDFT-UHFFFAOYSA-N,,NC(=O)C1CCCN(C(=O)Nc2ccc3c(c2)-c2ccccc2S3(=O)=O)C1,c1ccc2c(c1)-c3cc(ccc3S2(=O)=O)NC(=O)N4CCCC(C4)C(=O)N,NC(=O)C1CCCN(C1)C(=O)NC=2C=CC3=C(C2)C=4C=CC=CC4S3(=O)=O,-5.0457575
ICDJQHYMSIFZRR-UHFFFAOYSA-N,"3-hydroxy-4-[(E)-2-[2-methoxy-5-methyl-4-(methylsulfamoyl)phenyl]diazen-1-yl]-N-(2-oxo-2,3-dihydro-1H-1,3-benzodiazol-5-yl)naphthalene-2-carboxamide",CNS(=O)(=O)c1cc(OC)c(N/N=C2\C(=O)C(C(=O)Nc3ccc4[nH]c(=O)[nH]c4c3)=Cc3ccccc32)cc1C,Cc1cc(c(cc1S(=O)(=O)NC)OC)N/N=C\2/c3ccccc3C=C(C2=O)C(=O)Nc4ccc5c(c4)[nH]c(=O)[nH]5,CNS(=O)(=O)C=1C=C(C(=CC1C)N/N=C/2\C(=O)C(=CC3=C2C=CC=C3)C(=O)NC=4C=CC=5NC(=O)NC5C4)OC,-8.21708399
ICEUMJPAMUZPEV-UHFFFAOYSA-N,"1-cyclopropyl-6,8-difluoro-7-(2-methyl-3-methylaminoazetidin-1-yl)-4-oxoquinoline-3-carboxylic acid",CNC1CN(c2c(F)cc3c(=O)c(C(=O)O)cn(C4CC4)c3c2F)C1C,CC1C(CN1c2c(cc3c(c2F)n(cc(c3=O)C(=O)O)C4CC4)F)NC,CNC1CN(C1C)C2=C(C3=C(C=C2F)C(=O)C(=CN3C4CC4)C(=O)O)F,-4.441
ICFJFFQQTFMIBG-UHFFFAOYSA-N,phenformin hydrochloride,NC(N)=N/C(N)=N/CCc1ccccc1,c1ccc(cc1)CC/N=C(\N)/N=C(N)N,C1=CC=C(C=C1)CC/N=C(\N)/N=C(N)N,-0.7020713479999999
ICGFNCRJNGPVNV-UHFFFAOYSA-O,,Cc1c(NS(=O)(=O)c2ccccc2)c2ccccc2[n+]2nn(-c3ccc(C(F)(F)F)cc3)c(O)c12,Cc1c(c2ccccc2[n+]3c1c(n(n3)c4ccc(cc4)C(F)(F)F)O)NS(=O)(=O)c5ccccc5,C=1C=CC=CC1S(=O)(=O)NC2=C(C3=C(N(N=[N+]3C4=C2C=CC=C4)C=5C=CC(=CC5)C(F)(F)F)O)C,-6.1021541
ICGLPKIVTVWCFT-UHFFFAOYSA-N,4-Toluenesulfonic acid hydrazide,Cc1ccc(S(=O)(=O)NN)cc1,Cc1ccc(cc1)S(=O)(=O)NN,CC1=CC=C(C=C1)S(=O)(=O)NN,-1.48
ICGOMSYWVMLBDX-UHFFFAOYSA-N,,CC(C)OC(=O)C1(S(=O)(=O)c2ccccc2)CCC1,CC(C)OC(=O)C1(CCC1)S(=O)(=O)c2ccccc2,S(=O)(=O)(C1(CCC1)C(=O)OC(C)C)C2=CC=CC=C2,-3.341
ICHITFXFPPDNBH-UHFFFAOYSA-N,,CC(C)(C)OC(=O)C(Cc1ccccc1)NC(=O)C1CCCN1C(=O)OCc1ccccc1,CC(C)(C)OC(=O)C(Cc1ccccc1)NC(=O)C2CCCN2C(=O)OCc3ccccc3,CC(C)(C)OC(=O)C(CC=1C=CC=CC1)NC(=O)C2CCCN2C(=O)OCC=3C=CC=CC3,-4.366531500000001
ICKWICRCANNIBI-UHFFFAOYSA-N,"2,4-di-tert-butylphenol",CC(C)(C)c1ccc(O)c(C(C)(C)C)c1,CC(C)(C)c1ccc(c(c1)C(C)(C)C)O,CC(C)(C)C=1C=CC(=C(C1)C(C)(C)C)O,-3.7710000000000004
ICLCCFKUSALICQ-UHFFFAOYSA-N,1-isocyanato-4-(4-isocyanato-3-methylphenyl)-2-methylbenzene,Cc1cc(-c2ccc(N=C=O)c(C)c2)ccc1N=C=O,Cc1cc(ccc1N=C=O)c2ccc(c(c2)C)N=C=O,CC=1C=C(C=CC1N=C=O)C=2C=CC(=C(C2)C)N=C=O,-2.30806376
ICMGLRUYEQNHPF-UHFFFAOYSA-N,urapidil,COc1ccccc1N1CCN(CCCNc2cc(=O)n(C)c(=O)n2C)CC1,Cn1c(cc(=O)n(c1=O)C)NCCCN2CCN(CC2)c3ccccc3OC,CN1C(=CC(=O)N(C1=O)C)NCCCN2CCN(CC2)C3=CC=CC=C3OC,-1.30949569
ICMPFMFENYNRSA-UHFFFAOYSA-N,,COc1ccc2c(Nc3ccc(Oc4cccc(OCC(=O)NC5CC5)c4)cc3)c(C#N)cnc2c1,COc1ccc2c(c1)ncc(c2Nc3ccc(cc3)Oc4cccc(c4)OCC(=O)NC5CC5)C#N,COC=1C=CC=2C(=C(C=NC2C1)C#N)NC=3C=CC(=CC3)OC=4C=CC=C(C4)OCC(=O)NC5CC5,-4.3767507000000005
ICMWWNHDUZJFDW-UHFFFAOYSA-N,oxymetholone,C[C@]12C/C(=C/O)C(=O)C[C@@H]1CC[C@@H]1[C@@H]2CC[C@@]2(C)[C@H]1CC[C@]2(C)O,C[C@]12CC[C@H]3[C@H]([C@@H]1CC[C@]2(C)O)CC[C@@H]4[C@@]3(C/C(=C/O)/C(=O)C4)C,C[C@]12CC[C@H]3[C@H]([C@@H]1CC[C@]2(C)O)CC[C@@H]4[C@@]3(C/C(=C/O)/C(=O)C4)C,-4.805762182
ICNFHJVPAJKPHW-UHFFFAOYSA-N,,Nc1ccc(Sc2ccc(N)cc2)cc1,c1cc(ccc1N)Sc2ccc(cc2)N,S(C1=CC=C(C=C1)N)C2=CC=C(C=C2)N,-2.6439999999999997
ICOOPSMEAJSNMY-UHFFFAOYSA-N,,Oc1nnc(O)c2c1[nH]c1cc(Cl)cc(Cl)c12,c1c(cc(c2c1[nH]c3c2c(nnc3O)O)Cl)Cl,OC=1N=NC(=C2C1NC3=C2C(=CC(=C3)Cl)Cl)O,-4.237171400000001
ICQMZIWOQSJVFD-UHFFFAOYSA-N,,NCc1ccc(NC(=O)c2cc(Nc3ncccn3)c3cc(/C(N)=N/O)ccc3c2)cc1,c1cnc(nc1)Nc2cc(cc3c2cc(cc3)/C(=N/O)/N)C(=O)Nc4ccc(cc4)CN,NCC=1C=CC(=CC1)NC(=O)C=2C=C(C=3C=C(C=CC3C2)/C(=N/O)/N)NC=4N=CC=CN4,-4.552842
ICTIVTCHZRVVQR-UHFFFAOYSA-N,Hexanebis(thioic) acid,O=C(S)CCCCC(=O)S,C(CCC(=O)S)CC(=O)S,SC(=O)CCCCC(=O)S,-1.7328
ICUTUKXCWQYESQ-UHFFFAOYSA-N,"1-(4-Chlorophenyl)-3-(3,4-dichlorophenyl)urea",O=C(Nc1ccc(Cl)cc1)Nc1ccc(Cl)c(Cl)c1,c1cc(ccc1NC(=O)Nc2ccc(c(c2)Cl)Cl)Cl,ClC=1C=CC(=CC1)NC(=O)NC=2C=CC(=C(C2)Cl)Cl,-6.457999999999999
ICUZHLHSYKJAGS-UHFFFAOYSA-N,"2,4,6(3H)-Pteridinetrione, 1,5-dihydro-",O=c1cnc2[nH]c(=O)[nH]c(=O)c2[nH]1,c1c(=O)[nH]c2c(n1)[nH]c(=O)[nH]c2=O,O=C1C=NC2=C(N1)C(=O)NC(=O)N2,-3.1275
ICVRBKCRXNVOJC-UHFFFAOYSA-N,C.I. DISPERSE VIOLET 4,CNc1ccc(N)c2c1C(=O)c1ccccc1C2=O,CNc1ccc(c2c1C(=O)c3ccccc3C2=O)N,C1(=CC=C(C2=C1C(=O)C=3C(=CC=CC3)C2=O)NC)N,-5.638
ICWUMLXQKFTJMH-UHFFFAOYSA-N,Etobenzanid,CCOCOc1ccc(C(=O)Nc2cccc(Cl)c2Cl)cc1,CCOCOc1ccc(cc1)C(=O)Nc2cccc(c2Cl)Cl,C(=O)(NC=1C(=C(C=CC1)Cl)Cl)C2=CC=C(C=C2)OCOCC,-5.568
ICZBWKGJZRHLFV-UHFFFAOYSA-N,4-[4-hydroxy-3-[(methyl-(2-methylpropyl)amino)methyl]benzoyl]thiophene-2-sulfonamide,CC(C)CN(C)Cc1cc(C(=O)c2csc(S(N)(=O)=O)c2)ccc1O,CC(C)CN(C)Cc1cc(ccc1O)C(=O)c2cc(sc2)S(=O)(=O)N,CC(C)CN(C)CC1=C(C=CC(=C1)C(=O)C2=CSC(=C2)S(=O)(=O)N)O,-1.419
IDAKKENHMORASC-UHFFFAOYSA-N,,O=C(Cc1ccccc1)N1CCN(c2ccccn2)CC1,c1ccc(cc1)CC(=O)N2CCN(CC2)c3ccccn3,O=C(CC=1C=CC=CC1)N2CCN(CC2)C=3C=CC=CN3,-3.3187587999999995
IDEWNMWYHAXZLF-UHFFFAOYSA-N,,CCN(Cc1cc(S(C)(=O)=O)ccc1OCc1ccccc1)c1ccc(C(=O)NS(=O)(=O)c2ccccc2)cc1,CCN(Cc1cc(ccc1OCc2ccccc2)S(=O)(=O)C)c3ccc(cc3)C(=O)NS(=O)(=O)c4ccccc4,CCN(CC=1C=C(C=CC1OCC=2C=CC=CC2)S(=O)(=O)C)C=3C=CC(=CC3)C(=O)NS(=O)(=O)C=4C=CC=CC4,-3.8961962999999997
IDKAXRLETRCXKS-UHFFFAOYSA-N,Fenclofenac,O=C(O)Cc1ccccc1Oc1ccc(Cl)cc1Cl,c1ccc(c(c1)CC(=O)O)Oc2ccc(cc2Cl)Cl,OC(=O)CC1=CC=CC=C1OC2=C(C=C(C=C2)Cl)Cl,-4.355
IDKMFABKPPHDBI-UHFFFAOYSA-N,"3,5-Dichloro-2,6-dimethoxyphenol",COc1c(Cl)cc(Cl)c(OC)c1O,COc1c(cc(c(c1O)OC)Cl)Cl,COC1=C(C=C(C(=C1O)OC)Cl)Cl,-2.9605
IDLIBMYXWLTILR-UHFFFAOYSA-N,4-chloro-3-[(4-hydroxyphenyl)diazenyl]benzoic acid,O=C(O)c1ccc(Cl)c(/N=N/c2ccc(O)cc2)c1,c1cc(ccc1/N=N/c2cc(ccc2Cl)C(=O)O)O,O=C(O)C1=CC(=C(C=C1)Cl)/N=N/C2=CC=C(C=C2)O,-4.0795
IDLRLXWHIHRWQE-UHFFFAOYSA-N,,N#Cc1cccc(C(=O)NCCSCc2c(Cl)cccc2Cl)c1,c1cc(cc(c1)C(=O)NCCSCc2c(cccc2Cl)Cl)C#N,ClC=1C=CC=C(C1CSCCNC(=O)C=2C=CC=C(C2)C#N)Cl,-5.8239087
IDLUNSKQLNUAKG-UHFFFAOYSA-N,,COc1cc2ncc(C#N)c(Nc3ccc(Oc4ccccc4OCC(=O)NCCN4CCOCC4)cc3)c2cc1OC,COc1cc2c(cc1OC)ncc(c2Nc3ccc(cc3)Oc4ccccc4OCC(=O)NCCN5CCOCC5)C#N,COC=1C=C2N=CC(=C(C2=CC1OC)NC=3C=CC(=CC3)OC=4C=CC=CC4OCC(=O)NCCN5CCOCC5)C#N,-5.60206
IDNUQZYMHLOAJR-UHFFFAOYSA-N,,Clc1ccc(-c2ncc3c(n2)-c2ncncc2CC3)cc1,c1cc(ccc1c2ncc3c(n2)-c4c(cncn4)CC3)Cl,ClC=1C=CC(=CC1)C=2N=C3C(=CN2)CCC4=C3N=CN=C4,-4.4280538
IDORXNMJEPMOKG-UHFFFAOYSA-N,,O=CN(O)C(CS(=O)(=O)N1CCC(C(=O)Nc2ccccc2)CC1)c1ccc(Cl)c(Cl)c1,c1ccc(cc1)NC(=O)C2CCN(CC2)S(=O)(=O)CC(c3ccc(c(c3)Cl)Cl)N(C=O)O,ON(C=O)C(CS(=O)(=O)N1CCC(CC1)C(=O)NC=2C=CC=CC2)C=3C=CC(=C(C3)Cl)Cl,-5.4202164
IDOWTHOLJBTAFI-UHFFFAOYSA-N,Phenmedipham,COC(=O)Nc1cccc(OC(=O)Nc2cccc(C)c2)c1,Cc1cccc(c1)NC(=O)Oc2cccc(c2)NC(=O)OC,O=C(OC)NC=1C=C(C=CC1)OC(=O)NC=2C=C(C=CC2)C,-4.8
IDOYKZUKFCHLML-UHFFFAOYSA-N,sodium 4-[(2-hydroxy-1-naphthyl)diazenyl]-3-methylbenzenesulfonate,Cc1cc(S(=O)(=O)O)ccc1N/N=C1/C(=O)C=Cc2ccccc21,Cc1cc(ccc1N/N=C/2\c3ccccc3C=CC2=O)S(=O)(=O)O,CC=1C=C(C=CC1N/N=C\2/C(=O)C=CC3=C2C=CC=C3)S(=O)(=O)O,-0.436600215
IDPLHYMKBLXNMO-UHFFFAOYSA-N,,Nc1ncccc1-c1ncc(-c2ccc(Cl)cc2)o1,c1cc(c(nc1)N)c2ncc(o2)c3ccc(cc3)Cl,C=1C=C(C=CC1C2=CN=C(O2)C=3C(=NC=CC3)N)Cl,-7.0191275
IDRGJUTUUSBVIA-UHFFFAOYSA-N,,O=CN(O)C(CCc1ncc(F)cn1)CS(=O)(=O)N1CCN(c2ccc(C(F)(F)F)cn2)CC1,c1cc(ncc1C(F)(F)F)N2CCN(CC2)S(=O)(=O)CC(CCc3ncc(cn3)F)N(C=O)O,ON(C=O)C(CCC=1N=CC(=CN1)F)CS(=O)(=O)N2CCN(CC2)C=3C=CC(=CN3)C(F)(F)F,-3.7447275
IDSFYIZRESCZHG-UHFFFAOYSA-N,,COc1cc2ncnc(Nc3ccc(F)c(Cl)c3)c2cc1NC(=O)NCCCN(C)C,CN(C)CCCNC(=O)Nc1cc2c(cc1OC)ncnc2Nc3ccc(c(c3)Cl)F,COC=1C=C2N=CN=C(C2=CC1NC(=O)NCCCN(C)C)NC=3C=CC(=C(C3)Cl)F,-2.8860566000000003
IDSHBRYDARMOMB-UHFFFAOYSA-N,,COC(=O)c1cc(OC)c(OC)cc1Nc1ccnc2cc(OC)c(C(=O)OC)c(OC)c12,COc1cc(c(cc1OC)Nc2ccnc3c2c(c(c(c3)OC)C(=O)OC)OC)C(=O)OC,COC(=O)C=1C=C(C(=CC1NC=2C=CN=C3C2C(=C(C(=C3)OC)C(=O)OC)OC)OC)OC,-3.3821613
IDTIETZIJQLNSJ-UHFFFAOYSA-N,,NS(=O)(=O)c1ncc(-c2ccc(OCC(O)CCc3cccnc3)cc2)s1,c1cc(cnc1)CCC(COc2ccc(cc2)c3cnc(s3)S(=O)(=O)N)O,C1=C(SC(=N1)S(=O)(=O)N)C=2C=CC(=CC2)OCC(O)CCC=3C=CC=NC3,-4.884529799999999
IDWBEUKRUVDEJQ-UHFFFAOYSA-N,,COCCNS(=O)(=O)c1ccc(Nc2nccc(-c3cnc4cccnn34)n2)cc1,COCCNS(=O)(=O)c1ccc(cc1)Nc2nccc(n2)c3cnc4n3nccc4,COCCNS(=O)(=O)C=1C=CC(=CC1)NC=2N=CC=C(N2)C3=CN=C4N3N=CC=C4,-5.1426675
IDWNZTWUCYIQKP-UHFFFAOYSA-N,,Cc1ccccc1COc1cc(C(=O)Nc2ccc(C(=O)O)cn2)nc2ccccc12,Cc1ccccc1COc2cc(nc3c2cccc3)C(=O)Nc4ccc(cn4)C(=O)O,CC=1C=CC=CC1COC=2C=C(N=C3C2C=CC=C3)C(=O)NC=4C=CC(=CN4)C(=O)O,-4.79588
IDWVTPLLYFMNEX-UHFFFAOYSA-N,"4(1H)-Pteridinone, hydrazone",NNc1ncnc2nccnc12,c1cnc2c(n1)c(ncn2)NN,NNC1=NC=NC=2C1=NC=CN2,-1.8630000000000002
IDXDYIBZJCWLPS-UHFFFAOYSA-N,2-oxopropyl 2-(6-methoxynaphthalen-2-yl)propanoate,COc1ccc2cc(C(C)C(=O)OCC(C)=O)ccc2c1,CC(c1ccc2cc(ccc2c1)OC)C(=O)OCC(=O)C,COC1=CC=C2C=C(C=CC2=C1)C(C)C(=O)OCC(=O)C,-4.649
IDXLLBBFRBQZFE-UHFFFAOYSA-N,"Sulfanilamide, N1-(5-isobutyl-1,3,4-thiadiazol-2",CC(C)Cc1nnc(NS(=O)(=O)c2ccc(N)cc2)s1,CC(C)Cc1nnc(s1)NS(=O)(=O)c2ccc(cc2)N,S(=O)(=O)(C1=CC=C(C=C1)N)NC2=NN=C(S2)CC(C)C,-3.8226
IDXYSCCYCCNEPB-UHFFFAOYSA-N,,COc1cc2c(Nc3ccc(NC(=O)c4cccs4)cc3)ncnc2cc1OCCCN1CCOCC1,COc1cc2c(cc1OCCCN3CCOCC3)ncnc2Nc4ccc(cc4)NC(=O)c5cccs5,COC=1C=C2C(=NC=NC2=CC1OCCCN3CCOCC3)NC=4C=CC(=CC4)NC(=O)C5=CC=CS5,-5.455932
IDYZIJYBMGIQMJ-UHFFFAOYSA-N,enoxacin,CCn1cc(C(=O)O)c(=O)c2cc(F)c(N3CCNCC3)nc21,CCn1cc(c(=O)c2c1nc(c(c2)F)N3CCNCC3)C(=O)O,CCN1C=C(C(=O)C=2C1=NC(=C(C2)F)N3CCNCC3)C(=O)O,-2.727432805
IDZYLIZKJFAXAS-UHFFFAOYSA-N,"5,5-diphenylhydantoin-3-methyl  octanoate",CCCCCCCC(=O)OCN1C(=O)NC(c2ccccc2)(c2ccccc2)C1=O,CCCCCCCC(=O)OCN1C(=O)C(NC1=O)(c2ccccc2)c3ccccc3,O=C1N(C(=O)C(N1)(C=2C=CC=CC2)C=3C=CC=CC3)COC(=O)CCCCCCC,-6.523
IEBSEZWUMXZVTR-UHFFFAOYSA-N,,CC(C)(C)c1cc(Nc2nc(NCc3cccnc3)ncc2Br)[nH]n1,CC(C)(C)c1cc([nH]n1)Nc2c(cnc(n2)NCc3cccnc3)Br,CC(C)(C)C=1C=C(NN1)NC=2N=C(N=CC2Br)NCC=3C=CC=NC3,-5.0560111
IEBZUAPGFPGPGI-UHFFFAOYSA-N,,CC(=O)Nc1ccc2ncnc(Nc3ccc(Oc4ccccc4)c(Cl)c3)c2c1,CC(=O)Nc1ccc2c(c1)c(ncn2)Nc3ccc(c(c3)Cl)Oc4ccccc4,CC(=O)NC=1C=CC=2N=CN=C(C2C1)NC=3C=CC(=C(C3)Cl)OC=4C=CC=CC4,-7.154902000000001
IECPWNUMDGFDKC-UHFFFAOYSA-N,fusidic acid sodium,CC(=O)O[C@H]1C[C@@]2(C)[C@@H](C[C@@H](O)[C@H]3[C@@]4(C)CC[C@@H](O)[C@@H](C)[C@@H]4CC[C@@]32C)/C1=C(\CCC=C(C)C)C(=O)O,C[C@H]1[C@@H]2CC[C@]3([C@H]([C@]2(CC[C@H]1O)C)[C@@H](C[C@@H]\4[C@@]3(C[C@@H](/C4=C(/CCC=C(C)C)\C(=O)O)OC(=O)C)C)O)C,C[C@H]1[C@@H]2CC[C@]3([C@H]([C@]2(CC[C@H]1O)C)[C@@H](C[C@@H]\4[C@@]3(C[C@@H](/C4=C(/CCC=C(C)C)\C(=O)O)OC(=O)C)C)O)C,-1.0323689090000001
IECRZLVFXQJMPB-UHFFFAOYSA-N,,N#Cc1cccc(C(=O)NCCCSCc2ccccc2)c1,c1ccc(cc1)CSCCCNC(=O)c2cccc(c2)C#N,O=C(NCCCSCC=1C=CC=CC1)C=2C=CC=C(C2)C#N,-4.552842
IEDVJHCEMCRBQM-UHFFFAOYSA-N,Trimethoprim,COc1cc(Cc2cnc(N)nc2N)cc(OC)c1OC,COc1cc(cc(c1OC)OC)Cc2cnc(nc2N)N,NC1=NC=C(C(=N1)N)CC2=CC(=C(C(=C2)OC)OC)OC,-2.8608
IEEJAAUSLQCGJH-UHFFFAOYSA-N,,Cc1c(N)cc([N+](=O)[O-])cc1[N+](=O)[O-],Cc1c(cc(cc1[N+](=O)[O-])[N+](=O)[O-])N,CC1=C(C=C(C=C1[N+](=O)[O-])[N+](=O)[O-])N,-2.204
IEHWSQKYJHCJGJ-UHFFFAOYSA-N,,COc1cc2ncnc(Nc3ccc(F)c(Cl)c3)c2cc1OCCCNC1C=CCC1,COc1cc2c(cc1OCCCNC3CCC=C3)c(ncn2)Nc4ccc(c(c4)Cl)F,COC=1C=C2N=CN=C(C2=CC1OCCCNC3CCC=C3)NC=4C=CC(=C(C4)Cl)F,-3.2076083
IEJOONSLOGAXNO-UHFFFAOYSA-N,5-Bromosalicylic acid,O=C(O)c1cc(Br)ccc1O,c1cc(c(cc1Br)C(=O)O)O,OC(=O)C1=C(C=CC(=C1)Br)O,-2.65
IEJSCSAMMLUINT-UHFFFAOYSA-N,,C#CCN(Cc1cc2c(O)nc(C)nc2cc1C)c1ccc(C(=O)NC(CCc2nnn[nH]2)C(=O)O)c(F)c1,Cc1cc2c(cc1CN(CC#C)c3ccc(c(c3)F)C(=O)NC(CCc4[nH]nnn4)C(=O)O)c(nc(n2)C)O,CC=1C=C2N=C(N=C(C2=CC1CN(CC#C)C=3C=CC(=C(C3)F)C(=O)NC(CCC4=NN=NN4)C(=O)O)O)C,-2.0620043000000003
IEJZLRNOFZSRSW-UHFFFAOYSA-N,,COc1cc2c(Nc3ccc(Oc4ccc(F)cc4OCC(=O)NC4CC4)cc3)c(C#N)cnc2cc1OCCCN1CCOCC1,COc1cc2c(cc1OCCCN3CCOCC3)ncc(c2Nc4ccc(cc4)Oc5ccc(cc5OCC(=O)NC6CC6)F)C#N,COC=1C=C2C(=C(C=NC2=CC1OCCCN3CCOCC3)C#N)NC=4C=CC(=CC4)OC=5C=CC(=CC5OCC(=O)NC6CC6)F,-5.853872
IELZGSQDQSLCGG-UHFFFAOYSA-N,,COCCNS(=O)(=O)c1ccc(Nc2ncc(SCCN(C)C)c(-c3cnc4ccccn34)n2)cc1,CN(C)CCSc1cnc(nc1c2cnc3n2cccc3)Nc4ccc(cc4)S(=O)(=O)NCCOC,COCCNS(=O)(=O)C=1C=CC(=CC1)NC=2N=CC(=C(N2)C3=CN=C4N3C=CC=C4)SCCN(C)C,-5.1307683
IENVMHZISNYJNO-UHFFFAOYSA-N,,COc1ccc(-c2cc(C(N)=O)c(NC(N)=O)s2)cc1Cl,COc1ccc(cc1Cl)c2cc(c(s2)NC(=O)N)C(=O)N,COC=1C=CC(=CC1Cl)C2=CC(=C(S2)NC(=O)N)C(=O)N,-5.2146702000000005
IENZQIKPVFGBNW-UHFFFAOYSA-N,prazosin hydrochloride,COc1cc2nc(N3CCN(C(=O)c4ccco4)CC3)nc(N)c2cc1OC,COc1cc2c(cc1OC)nc(nc2N)N3CCN(CC3)C(=O)c4ccco4,O=C(N1CCN(CC1)C2=NC=3C(C(=N2)N)=CC(=C(C3)OC)OC)C=4OC=CC4,-5.09
IEPRKVQEAMIZSS-UHFFFAOYSA-N,DIETHYL MALEATE,CCOC(=O)/C=C\C(=O)OCC,CCOC(=O)/C=C\C(=O)OCC,O=C(OCC)/C=C/C(=O)OCC,-1.09
IEPWIPZLLIOZLU-UHFFFAOYSA-N,(3Z)-hex-3-en-1-yl 2-hydroxybenzoate,CC/C=C/CCOC(=O)c1ccccc1O,CC/C=C/CCOC(=O)c1ccccc1O,CC/C=C/CCOC(=O)C=1C=CC=CC1O,-4.643990702
IEPXMKJNWPXDBP-UHFFFAOYSA-N,5-ETHYL-5-(P-HYDROXYPHENYL)BARBITURIC ACID,CCC1(c2ccc(O)cc2)C(=O)NC(=O)NC1=O,CCC1(C(=O)NC(=O)NC1=O)c2ccc(cc2)O,C1(=O)C(C(=O)NC(=O)N1)(C2=CC=C(C=C2)O)CC,-2.301
IEQCJAQNEVFLQV-UHFFFAOYSA-N,"4-(5-amino-1,3,4-oxadiazol-2-yl)phenol",Nc1nnc(-c2ccc(O)cc2)o1,c1cc(ccc1c2nnc(o2)N)O,NC1=NN=C(O1)C2=CC=C(C=C2)O,-0.7705
IERHLVCPSMICTF-UHFFFAOYSA-N,Cytidine 3'-(dihydrogen phosphate),Nc1ccn(C2OC(COP(=O)(O)O)C(O)C2O)c(=O)n1,c1cn(c(=O)nc1N)C2C(C(C(O2)COP(=O)(O)O)O)O,NC1=NC(=O)N(C=C1)C2OC(C(C2O)O)COP(=O)(O)O,-1.198887676
IERMKRVXTRQJRQ-UHFFFAOYSA-N,,CCN(CC)C(=O)C(C)(C)c1ccc2[nH]c(-c3cc(C)cc(C)c3)c(CCNCCCCc3cccs3)c2c1,CCN(CC)C(=O)C(C)(C)c1ccc2c(c1)c(c([nH]2)c3cc(cc(c3)C)C)CCNCCCCc4cccs4,CCN(CC)C(=O)C(C)(C)C=1C=CC=2NC(=C(C2C1)CCNCCCCC3=CC=CS3)C=4C=C(C=C(C4)C)C,-5.3098039
IETWCRRCPURZOC-UHFFFAOYSA-N,"Benzenesulfonic acid, 4-  4-(dimethylamino)pheny",CN(C)c1ccc(/N=N/c2ccc(S(=O)(=O)O)cc2)cc1,CN(C)c1ccc(cc1)/N=N/c2ccc(cc2)S(=O)(=O)O,CN(C)C1=CC=C(C=C1)/N=N/C2=CC=C(C=C2)S(=O)(=O)O,-3.861
IEUCQMPQJXTTLU-UHFFFAOYSA-N,,CC(C)(C)C(=O)Nc1ccc2c(c1C#N)-c1ccccc1S2(=O)=O,CC(C)(C)C(=O)Nc1ccc2c(c1C#N)-c3ccccc3S2(=O)=O,CC(C)(C)C(=O)NC=1C=CC2=C(C1C#N)C=3C=CC=CC3S2(=O)=O,-4.853872
IFDPEBRZKHAWCD-UHFFFAOYSA-N,,COc1cc2c(Nc3ccc(F)c(Cl)c3)ncnc2cc1OCCC1CCN(C)CC1,CN1CCC(CC1)CCOc2cc3c(cc2OC)c(ncn3)Nc4ccc(c(c4)Cl)F,COC=1C=C2C(=NC=NC2=CC1OCCC3CCN(CC3)C)NC=4C=CC(=C(C4)Cl)F,-2.6777807
IFEKQNAXDMZERW-UHFFFAOYSA-N,TRYPTAZAN,NC(Cc1n[nH]c2ccccc12)C(=O)O,c1ccc2c(c1)c(n[nH]2)CC(C(=O)O)N,O=C(O)C(N)CC1=NNC=2C1=CC=CC2,-1.409
IFEWWVRHRCICRB-UHFFFAOYSA-N,,Cc1cc(Nc2nc(NCc3ccccn3)ncc2Br)[nH]n1,Cc1cc([nH]n1)Nc2c(cnc(n2)NCc3ccccn3)Br,CC=1C=C(NN1)NC=2N=C(N=CC2Br)NCC=3C=CC=CN3,-6.2076082999999995