inchikey,Name,SMILES_stand,SMILES,kekSmiles,logS
GLWWLNJJJCTFMZ-UHFFFAOYSA-N,,O=C(O)C1(C(=O)Nc2ccc(Cl)cc2Cl)CC1,c1cc(c(cc1Cl)Cl)NC(=O)C2(CC2)C(=O)O,O=C(O)C1(CC1)C(=O)NC2=CC=C(C=C2Cl)Cl,-3.7569999999999997
GLXPRWRIRACXAZ-UHFFFAOYSA-N,,COc1cc2c(Nc3ccc(Oc4nccs4)cc3)c(C#N)cnc2cc1OCCCN1CCCCC1,COc1cc2c(cc1OCCCN3CCCCC3)ncc(c2Nc4ccc(cc4)Oc5nccs5)C#N,COC=1C=C2C(=C(C=NC2=CC1OCCCN3CCCCC3)C#N)NC=4C=CC(=CC4)OC5=NC=CS5,-3.352617
GLXPSFVNAPWXDF-UHFFFAOYSA-N,"D-Glucose, 2-deoxy-2-[[(phenylmethoxy)carbonyl]a",O=CC(NC(=O)OCc1ccccc1)C(O)C(O)C(O)CO,c1ccc(cc1)COC(=O)NC(C=O)C(C(C(CO)O)O)O,OC(C(NC(=O)OCC1=CC=CC=C1)C=O)C(C(CO)O)O,-1.74
GLYCOPUOGKGJKU-UHFFFAOYSA-N,,COc1cc2ncnc(Nc3cc(NC(=O)c4ccnc(N5CCOCC5)c4)ccc3C)c2cc1OCCN1CCCCC1,Cc1ccc(cc1Nc2c3cc(c(cc3ncn2)OC)OCCN4CCCCC4)NC(=O)c5ccnc(c5)N6CCOCC6,COC=1C=C2N=CN=C(C2=CC1OCCN3CCCCC3)NC=4C=C(C=CC4C)NC(=O)C=5C=CN=C(C5)N6CCOCC6,-3.0861861
GLYXACFPCLUSBA-UHFFFAOYSA-N,METHYL  2-METHYL-3-PHENYLTHIOPROPIONATE,COC(=O)C(C)CSc1ccccc1,CC(CSc1ccccc1)C(=O)OC,COC(=O)C(C)CSC1=CC=CC=C1,-2.12
GLZPCOQZEFWAFX-UHFFFAOYSA-N,Nerol,CC(C)=CCC/C(C)=C\CO,CC(=CCC/C(=C\CO)/C)C,OC/C=C(/CCC=C(C)C)\C,-2.46
GMAUQNJOSOMMHI-UHFFFAOYSA-N,ALANYCARB,CCOC(=O)CCN(Cc1ccccc1)SN(C)C(=O)O/N=C(\C)SC,CCOC(=O)CCN(Cc1ccccc1)SN(C)C(=O)O/N=C(\C)/SC,O=C(O/N=C(\C)/SC)N(C)SN(CC1=CC=CC=C1)CCC(=O)OCC,-4.301
GMBKUKZGEANDRD-UHFFFAOYSA-N,,O=C(NCCCn1ccnc1)c1ccc(Nc2ncc(Cl)c(Nc3ccccn3)n2)cc1,c1ccnc(c1)Nc2c(cnc(n2)Nc3ccc(cc3)C(=O)NCCCn4ccnc4)Cl,ClC=1C=NC(=NC1NC=2C=CC=CN2)NC=3C=CC(=CC3)C(=O)NCCCN4C=CN=C4,-5.1135093000000005
GMBNNHLANOGOAU-UHFFFAOYSA-N,"Sodium 1-amino-4-(cyclohexylamino)-9,10-dioxo-9,10-dihydroanthracene-2-sulfonate",Nc1c(S(=O)(=O)O)cc(NC2CCCCC2)c2c1C(=O)c1ccccc1C2=O,c1ccc2c(c1)C(=O)c3c(cc(c(c3C2=O)N)S(=O)(=O)O)NC4CCCCC4,NC=1C(=CC(=C2C1C(=O)C3=C(C=CC=C3)C2=O)NC4CCCCC4)S(=O)(=O)O,-1.29618255
GMDADKPJAYHJFG-UHFFFAOYSA-N,,CC1CN(C(C)CO)C(=O)CCCn2cc(nn2)COC1CN(C)C(=O)Cc1ccccc1,CC1CN(C(=O)CCCn2cc(nn2)COC1CN(C)C(=O)Cc3ccccc3)C(C)CO,CC(CO)N1CC(C(OCC2=CN(N=N2)CCCC1=O)CN(C)C(=O)CC3=CC=CC=C3)C,-4.0
GMHICBRBNJAPNL-UHFFFAOYSA-N,,O=C(COc1ccc2c(ccn2Cc2ccccc2C(=O)O)c1)Nc1ccc(OCc2ccccc2)cc1,c1ccc(cc1)COc2ccc(cc2)NC(=O)COc3ccc4c(c3)ccn4Cc5ccccc5C(=O)O,OC(=O)C=1C=CC=CC1CN2C=CC3=C2C=CC(=C3)OCC(=O)NC=4C=CC(=CC4)OCC=5C=CC=CC5,-4.408935400000001
GMHKMTDVRCWUDX-UHFFFAOYSA-N,mephenytoin,CCC1(c2ccccc2)NC(=O)N(C)C1=O,CCC1(C(=O)N(C(=O)N1)C)c2ccccc2,CCC1(C(=O)N(C(=O)N1)C)C2=CC=CC=C2,-2.352182518
GMJAXKKUTHHHMD-UHFFFAOYSA-N,tert-butyl 1-(4-chlorophenylsulfonyl)cyclopropane-1-carboxylate; 1-(4-chlorophenylsulfonyl)cyclopropanecarboxylic acid tert-butyl ester,CC(C)(C)OC(=O)C1(S(=O)(=O)c2ccc(Cl)cc2)CC1,CC(C)(C)OC(=O)C1(CC1)S(=O)(=O)c2ccc(cc2)Cl,CC(C)(C)OC(=O)C1(CC1)S(=O)(=O)C=2C=CC(=CC2)Cl,-4.1206
GMLBHJMTVBLXLJ-UHFFFAOYSA-N,"Benzeneacetic acid, -[(sulfooxy)methyl]-, 8-meth",CN1C2CCC1CC(OC(=O)C(COS(=O)(=O)O)c1ccccc1)C2,CN1C2CCC1CC(C2)OC(=O)C(COS(=O)(=O)O)c3ccccc3,CN1C2CCC1CC(C2)OC(=O)C(COS(=O)(=O)O)C=3C=CC=CC3,-1.568
GMRLYFSSMHOUNB-UHFFFAOYSA-N,"(4E)-4-[(1,3-Thiazol-2-ylcarbonyl)hydrazono]pentanoic acid",C/C(CCC(=O)O)=N\NC(=O)c1nccs1,C/C(=N\NC(=O)c1nccs1)/CCC(=O)O,C1(=NC=CS1)C(=O)N/N=C(/CCC(=O)O)\C,-1.73
GMRTZTJQMFTYQA-UHFFFAOYSA-N,,CN(C)CCCN(C)c1ncc2c(Nc3ccc(F)c(Cl)c3)ncnc2n1,CN(C)CCCN(C)c1ncc2c(n1)ncnc2Nc3ccc(c(c3)Cl)F,CN(C)CCCN(C)C=1N=CC=2C(=NC=NC2N1)NC=3C=CC(=C(C3)Cl)F,-2.853872
GMSCBRSQMRDRCD-UHFFFAOYSA-N,dodecyl 2-methylprop-2-enoate,C=C(C)C(=O)OCCCCCCCCCCCC,CCCCCCCCCCCCOC(=O)C(=C)C,CCCCCCCCCCCCOC(=O)C(=C)C,-8.405770503
GMSLSYKIMAFMPT-UHFFFAOYSA-N,,O=C(O)c1cc2ccc(-n3c(-c4ccccc4)c[nH]c3=O)cc2cn1,c1ccc(cc1)c2c[nH]c(=O)n2c3ccc4cc(ncc4c3)C(=O)O,OC(=O)C=1C=C2C=CC(=CC2=CN1)N3C(=CNC3=O)C=4C=CC=CC4,-2.3565473
GMSOIBLTSDGVEX-UHFFFAOYSA-N,"Phosphoric acid, dimethyl propyl ester",CCCOP(=O)(OC)OC,CCCOP(=O)(OC)OC,P(=O)(OCCC)(OC)OC,0.4733
GMVPRGQOIOIIMI-UHFFFAOYSA-N,PROSTAGLANDIN E1;  ALPROSTADIL,CCCCCC(O)/C=C/C1C(O)CC(=O)C1CCCCCCC(=O)O,CCCCCC(/C=C/C1C(CC(=O)C1CCCCCCC(=O)O)O)O,OC1C(C(C(=O)C1)CCCCCCC(=O)O)/C=C/C(O)CCCCC,-3.67
GMZVXTXRRCCJOF-UHFFFAOYSA-N,,COCCC(=O)Nc1ccc2c(c1)-c1ccccc1S2(=O)=O,COCCC(=O)Nc1ccc2c(c1)-c3ccccc3S2(=O)=O,COCCC(=O)NC=1C=CC2=C(C1)C=3C=CC=CC3S2(=O)=O,-4.408935400000001
GMZWPTALVQRAFV-UHFFFAOYSA-N,"2,5-Cyclohexadiene-1,4-dione, 2,5-dibromo-3,6-di",O=C1C(O)=C(Br)C(=O)C(O)=C1Br,C1(=C(C(=O)C(=C(C1=O)Br)O)Br)O,O=C1C(=C(C(=O)C(=C1Br)O)Br)O,-2.313
GNALBMXZWTYWAG-UHFFFAOYSA-N,,O=C(NC(Cc1ccccc1)C(=O)N1CCC(O)CC1)c1cc2cc(Cl)ccc2[nH]1,c1ccc(cc1)CC(C(=O)N2CCC(CC2)O)NC(=O)c3cc4cc(ccc4[nH]3)Cl,OC1CCN(CC1)C(=O)C(CC=2C=CC=CC2)NC(=O)C3=CC=4C=C(C=CC4N3)Cl,-5.2924298
GNAMZNCNEUATEE-UHFFFAOYSA-N,3-ETHOXYCARBONYL-5-FLUOROURACIL,CCOC(=O)n1c(=O)[nH]cc(F)c1=O,CCOC(=O)n1c(=O)c(c[nH]c1=O)F,CCOC(=O)N1C(=O)NC=C(C1=O)F,-0.45
GNARGRLSKNUSOP-UHFFFAOYSA-N,,CC(C)(C)OC(=O)C(CCS(C)(=O)=O)NC(=O)c1ccc(COC(Cn2ccnc2)c2nccs2)cc1-c1ccc(F)cc1,CC(C)(C)OC(=O)C(CCS(=O)(=O)C)NC(=O)c1ccc(cc1c2ccc(cc2)F)COC(Cn3ccnc3)c4nccs4,CC(C)(C)OC(=O)C(CCS(=O)(=O)C)NC(=O)C=1C=CC(=CC1C=2C=CC(=CC2)F)COC(CN3C=CN=C3)C4=NC=CS4,-3.4975728999999998
GNBHRKFJIUUOQI-UHFFFAOYSA-N,fluorescein (yellow),O=C1OC2(c3ccc(O)cc3Oc3cc(O)ccc32)c2ccccc21,c1ccc2c(c1)C(=O)OC23c4ccc(cc4Oc5c3ccc(c5)O)O,OC=1C=CC2=C(C1)OC=3C=C(C=CC3C24OC(=O)C5=C4C=CC=C5)O,-3.8226
GNCOVOVCHIHPHP-UHFFFAOYSA-N,2-{2-[2-chloro-4-(3-chloro-4-{2-[2-oxo-1-(phenylcarbamoyl)propyl]diazen-1-yl}phenyl)phenyl]diazen-1-yl}-3-oxo-N-phenylbutanamide,CC(=O)C(/N=N/c1ccc(-c2ccc(/N=N/C(C(C)=O)C(=O)Nc3ccccc3)c(Cl)c2)cc1Cl)C(=O)Nc1ccccc1,CC(=O)C(C(=O)Nc1ccccc1)/N=N/c2ccc(cc2Cl)c3ccc(c(c3)Cl)/N=N/C(C(=O)C)C(=O)Nc4ccccc4,CC(=O)C(/N=N/C=1C=CC(=CC1Cl)C=2C=CC(=C(C2)Cl)/N=N/C(C(=O)C)C(=O)NC=3C=CC=CC3)C(=O)NC=4C=CC=CC4,-9.196969252
GNDPMKMIFIOZEP-UHFFFAOYSA-N,4-(4-methylpiperazin-1-yl)butyl 2-(6-methoxynaphthalen-2-yl)propanoate,COc1ccc2cc(C(C)C(=O)OCCCCN3CCN(C)CC3)ccc2c1,CC(c1ccc2cc(ccc2c1)OC)C(=O)OCCCCN3CCN(CC3)C,COC1=CC=C2C=C(C=CC2=C1)C(C)C(=O)OCCCCN3CCN(CC3)C,-1.288
GNEPOIGFRNMTBQ-UHFFFAOYSA-N,hexyl 2-(6-methoxynaphthalen-2-yl)propanoate,CCCCCCOC(=O)C(C)c1ccc2cc(OC)ccc2c1,CCCCCCOC(=O)C(C)c1ccc2cc(ccc2c1)OC,CCCCCCOC(=O)C(C)C1=CC=C2C=C(C=CC2=C1)OC,-7.5415
GNFOQSWHSQTXHR-UHFFFAOYSA-N,N-(1-amino-2-methyl-1-oxopropan-2-yl)benzamide,CC(C)(NC(=O)c1ccccc1)C(N)=O,CC(C)(C(=O)N)NC(=O)c1ccccc1,CC(C)(NC(=O)C=1C=CC=CC1)C(=O)N,-1.6154
GNGMCWUDWDAOTO-UHFFFAOYSA-N,,CCCCN(C)Cc1ccc(C(=O)Nc2cc(NC(=O)c3cc(F)cc(N4CCCC4)c3)ccc2C)cc1,CCCCN(C)Cc1ccc(cc1)C(=O)Nc2cc(ccc2C)NC(=O)c3cc(cc(c3)F)N4CCCC4,CCCCN(C)CC=1C=CC(=CC1)C(=O)NC=2C=C(C=CC2C)NC(=O)C=3C=C(C=C(C3)N4CCCC4)F,-6.2006595
GNGYPJUKIKDJQT-UHFFFAOYSA-N,ethyl 4-[[(methylphenylamino)methylene]amino]benzoate,CCOC(=O)c1ccc(/N=C/N(C)c2ccccc2)cc1,CCOC(=O)c1ccc(cc1)/N=C/N(C)c2ccccc2,CCOC(=O)C=1C=CC(=CC1)/N=C/N(C)C=2C=CC=CC2,-5.450888513
GNHDVXLWBQYPJE-UHFFFAOYSA-N,,CC(C)N(C)S(=O)(=O)NC(=O)c1cc(-n2c(=O)cc(C(F)(F)F)n(C)c2=O)c(F)cc1Cl,CC(C)N(C)S(=O)(=O)NC(=O)c1cc(c(cc1Cl)F)n2c(=O)cc(n(c2=O)C)C(F)(F)F,N1(C(=CC(=O)N(C1=O)C2=CC(=C(C=C2F)Cl)C(=O)NS(=O)(=O)N(C)C(C)C)C(F)(F)F)C,-2.377
GNILTGRCVCMPFJ-UHFFFAOYSA-N,"[3-methyl-4-(2,2,2-trifluoroethoxy)pyridin-2-yl]methanol",Cc1c(OCC(F)(F)F)ccnc1CO,Cc1c(ccnc1CO)OCC(F)(F)F,CC=1C(=NC=CC1OCC(F)(F)F)CO,-1.792036856
GNIZUUCYAIPGKZ-UHFFFAOYSA-N,,CN(C)C(=O)Nc1ccc(F)cc1,CN(C)C(=O)Nc1ccc(cc1)F,CN(C)C(=O)NC1=CC=C(C=C1)F,-1.49
GNJCUHZOSOYIEC-UHFFFAOYSA-N,morphine 6-glucuronide,CN1CC[C@]23c4c5ccc(O)c4O[C@H]2[C@@H](O[C@@H]2O[C@H](C(=O)O)[C@@H](O)[C@H](O)[C@H]2O)C=C[C@H]3[C@H]1C5,CN1CC[C@]23c4c5ccc(c4O[C@H]2[C@H](C=C[C@H]3[C@H]1C5)O[C@H]6[C@@H]([C@H]([C@@H]([C@H](O6)C(=O)O)O)O)O)O,CN1CC[C@]23[C@@H]4[C@H]1CC5=C2C(=C(C=C5)O)O[C@H]3[C@H](C=C4)O[C@H]6[C@@H]([C@H]([C@@H]([C@H](O6)C(=O)O)O)O)O,0.335865938
GNKHUAPMAVKMOW-UHFFFAOYSA-N,,CN(CC(=O)N1CCN(c2c(Cl)cncc2Cl)CC1)Cc1ccccc1CS(=O)(=O)c1ccccc1,CN(Cc1ccccc1CS(=O)(=O)c2ccccc2)CC(=O)N3CCN(CC3)c4c(cncc4Cl)Cl,CN(CC(=O)N1CCN(CC1)C=2C(=CN=CC2Cl)Cl)CC=3C=CC=CC3CS(=O)(=O)C=4C=CC=CC4,-6.0087739000000004
GNKZMNRKLCTJAY-UHFFFAOYSA-N,p-methylacetophenone,CC(=O)c1ccc(C)cc1,Cc1ccc(cc1)C(=O)C,C(=O)(C=1C=CC(=CC1)C)C,-2.557
GNLCKFJPWPKISM-UHFFFAOYSA-N,"2-Butenoic acid, 4-[(1-carboxyethyl)amino]-4-oxo",CC(NC(=O)/C=C/C(=O)O)C(=O)O,CC(C(=O)O)NC(=O)/C=C/C(=O)O,C(=O)(C(NC(=O)/C=C/C(=O)O)C)O,-0.9712
GNNDWFRDHAHNFG-UHFFFAOYSA-N,,O=C1CC2CCc3ccncc3C2=NN1c1ccc(Cl)cc1,c1cc(ccc1N2C(=O)CC3CCc4ccncc4C3=N2)Cl,O=C1N(N=C2C(C1)CCC3=C2C=NC=C3)C=4C=CC(=CC4)Cl,-4.5444471
GNNPTBUTFLOOBX-UHFFFAOYSA-N,,CC(C)(C)Nc1c(-c2ccccc2)nc2ncccn12,CC(C)(C)Nc1c(nc2n1cccn2)c3ccccc3,CC(C)(C)NC1=C(N=C2N1C=CC=N2)C=3C=CC=CC3,-3.853872
GNOIPBMMFNIUFM-UHFFFAOYSA-N,Hexamethylphosphoramide,CN(C)P(=O)(N(C)C)N(C)C,CN(C)P(=O)(N(C)C)N(C)C,P(=O)(N(C)C)(N(C)C)N(C)C,0.747
GNOWCCWOIOHCLZ-UHFFFAOYSA-N,,COc1ccc(Nc2cc(-c3ccccn3)nc(-c3ccccn3)n2)cc1OC,COc1ccc(cc1OC)Nc2cc(nc(n2)c3ccccn3)c4ccccn4,COC=1C=CC(=CC1OC)NC=2C=C(N=C(N2)C=3C=CC=CN3)C=4C=CC=CN4,-4.920818799999999
GNPAXXVNNKLBEO-UHFFFAOYSA-N,,CCN(CC)C(=O)C(C)(C)c1ccc2[nH]c(-c3cc(C)cc(C)c3)c(CCNCCCCc3ccncc3)c2c1,CCN(CC)C(=O)C(C)(C)c1ccc2c(c1)c(c([nH]2)c3cc(cc(c3)C)C)CCNCCCCc4ccncc4,CCN(CC)C(=O)C(C)(C)C=1C=CC=2NC(=C(C2C1)CCNCCCCC=3C=CN=CC3)C=4C=C(C=C(C4)C)C,-3.853872
GNQJMRPDQCWOQH-UHFFFAOYSA-N,,Cn1cncc1-c1ccnc(Nc2ccc(S(=O)(=O)NCCO)cc2)n1,Cn1cncc1c2ccnc(n2)Nc3ccc(cc3)S(=O)(=O)NCCO,CN1C=NC=C1C=2C=CN=C(N2)NC=3C=CC(=CC3)S(=O)(=O)NCCO,-4.6382722
GNQVIWSCRCOODL-UHFFFAOYSA-N,,CC(C)n1c2ccccc2c2cc(Nc3ccc(C(=O)N(C)C)nn3)ccc21,CC(C)n1c2ccccc2c3c1ccc(c3)Nc4ccc(nn4)C(=O)N(C)C,CC(C)N1C=2C=CC=CC2C3=C1C=CC(=C3)NC=4C=CC(=NN4)C(=O)N(C)C,-4.79588
GNTJCNXVTCDSPB-UHFFFAOYSA-N,,COc1cc2c(NC(=O)Nc3c(C)cccc3Cl)ncnc2cc1OCCN1CCOCC1,Cc1cccc(c1NC(=O)Nc2c3cc(c(cc3ncn2)OCCN4CCOCC4)OC)Cl,COC=1C=C2C(=NC=NC2=CC1OCCN3CCOCC3)NC(=O)NC=4C(=CC=CC4Cl)C,-4.6777807000000005
GNVDAZSPJWCIQZ-UHFFFAOYSA-N,Flusulfamide,O=[N+]([O-])c1ccc(NS(=O)(=O)c2ccc(Cl)c(C(F)(F)F)c2)c(Cl)c1,c1cc(c(cc1[N+](=O)[O-])Cl)NS(=O)(=O)c2ccc(c(c2)C(F)(F)F)Cl,ClC1=CC(=CC=C1NS(=O)(=O)C2=CC=C(C(=C2)C(F)(F)F)Cl)[N+](=O)[O-],-5.156000000000001
GNVTYGNEZLLRIK-UHFFFAOYSA-N,"DL-Aspartic acid, N,N-bis(2-cyanoethyl)-",N#CCCN(CCC#N)C(CC(=O)O)C(=O)O,C(CN(CCC#N)C(CC(=O)O)C(=O)O)C#N,OC(=O)CC(N(CCC#N)CCC#N)C(=O)O,-1.534
GNXFOGHNGIVQEH-UHFFFAOYSA-N,methocarbamol;  3-(2-methoxyphenoxy)-2-hydroxypropyl 1-carbamate,COc1ccccc1OCC(O)COC(N)=O,COc1ccccc1OCC(COC(=O)N)O,O=C(OCC(O)COC1=C(C=CC=C1)OC)N,-0.9875
GNYYVWOTRVNKCO-UHFFFAOYSA-N,N1-(4-IODOPHENYL)SULFANILAMIDE,Nc1ccc(S(=O)(=O)Nc2ccc(I)cc2)cc1,c1cc(ccc1N)S(=O)(=O)Nc2ccc(cc2)I,NC1=CC=C(C=C1)S(=O)(=O)NC2=CC=C(C=C2)I,-4.52
GOCUAJYOYBLQRH-UHFFFAOYSA-N,HALOXYFOP,CC(Oc1ccc(Oc2ncc(C(F)(F)F)cc2Cl)cc1)C(=O)O,CC(C(=O)O)Oc1ccc(cc1)Oc2c(cc(cn2)C(F)(F)F)Cl,N1=CC(=CC(=C1OC2=CC=C(C=C2)OC(C)C(=O)O)Cl)C(F)(F)F,-3.9210000000000003
GOCXSZHJXYOLLK-UHFFFAOYSA-N,"L-Alanine, 3-(phenyldithio)-",NC(CSSc1ccccc1)C(=O)O,c1ccc(cc1)SSCC(C(=O)O)N,C(=O)(C(CSSC1=CC=CC=C1)N)O,-2.662
GOEMGAFJFRBGGG-UHFFFAOYSA-N,Acebutolol,CCCC(=O)Nc1ccc(OCC(O)CNC(C)C)c(C(C)=O)c1,CCCC(=O)Nc1ccc(c(c1)C(=O)C)OCC(CNC(C)C)O,O(CC(O)CNC(C)C)C1=CC=C(C=C1C(=O)C)NC(=O)CCC,-2.2
GOFJDXZZHFNFLV-UHFFFAOYSA-N,,Cc1nn(C)c(F)c1C(=O)Nc1ccccc1C(C)CC(C)C,Cc1c(c(n(n1)C)F)C(=O)Nc2ccccc2C(C)CC(C)C,O=C(C=1C(=NN(C1F)C)C)NC2=CC=CC=C2C(C)CC(C)C,-4.4639999999999995
GOGYHVOOMHFPAC-UHFFFAOYSA-N,"Urea, N-butyl-N-phenyl",CCCCN(C(N)=O)c1ccccc1,CCCCN(c1ccccc1)C(=O)N,CCCCN(C(=O)N)C=1C=CC=CC1,-1.29705
GOHBXWHNJHENRX-UHFFFAOYSA-N,5-Methylchrysene,Cc1cc2ccccc2c2ccc3ccccc3c12,Cc1cc2ccccc2c3c1c4ccccc4cc3,CC=1C=C2C=CC=CC2=C3C1C4=C(C=C3)C=CC=C4,-6.59
GOHPTLYPQCTZSE-UHFFFAOYSA-N,"Butanedioic acid, 2,2-dimethyl-",CC(C)(CC(=O)O)C(=O)O,CC(C)(CC(=O)O)C(=O)O,CC(C)(CC(=O)O)C(=O)O,-0.32
GOILPRCCOREWQE-UHFFFAOYSA-N,6-Methoxypurine,COc1ncnc2nc[nH]c12,COc1c2c(nc[nH]2)ncn1,COC1=NC=NC2=C1NC=N2,-1.53
GOJCZVPJCKEBQV-UHFFFAOYSA-N,,CCCCOC(=O)COC(=O)c1ccccc1C(=O)OCCCC,CCCCOC(=O)COC(=O)c1ccccc1C(=O)OCCCC,O=C(OCC(=O)OCCCC)C1=C(C=CC=C1)C(=O)OCCCC,-5.196000000000001
GOJLICPJYGWQMM-UHFFFAOYSA-N,,CC(C)(CO)NC(=O)CNC(=O)c1cc2sc(Cl)c(Cl)c2[nH]1,CC(C)(CO)NC(=O)CNC(=O)c1cc2c([nH]1)c(c(s2)Cl)Cl,CC(C)(CO)NC(=O)CNC(=O)C1=CC=2SC(=C(C2N1)Cl)Cl,-4.5030704
GOKKOFHHJFGZHW-UHFFFAOYSA-N,"Propanoic acid, 2-hydroxy-, hexyl ester",CCCCCCOC(=O)CC,CCCCCCOC(=O)CC,C(=O)(OCCCCCC)CC,-1.095
GOKZEHPYAIHCMO-UHFFFAOYSA-N,,COc1cc2c(Nc3ncc(CC(=O)Nc4cccc(F)c4)s3)ncnc2cc1OCCCN1CCCC1CO,COc1cc2c(cc1OCCCN3CCCC3CO)ncnc2Nc4ncc(s4)CC(=O)Nc5cccc(c5)F,COC=1C=C2C(=NC=NC2=CC1OCCCN3CCCC3CO)NC4=NC=C(S4)CC(=O)NC=5C=CC=C(C5)F,-4.893002200000001
GOLXNESZZPUPJE-UHFFFAOYSA-N,,Cc1cc(C)c(C2=C(OC(=O)CC(C)(C)C)C3(CCCC3)OC2=O)c(C)c1,Cc1cc(c(c(c1)C)C2=C(C3(CCCC3)OC2=O)OC(=O)CC(C)(C)C)C,O=C(OC1=C(C(=O)OC12CCCC2)C3=C(C=C(C=C3C)C)C)CC(C)(C)C,-6.455
GOMAEJQBTWAPAN-UHFFFAOYSA-N,5-methylbarbituric acid,CC1C(=O)NC(=O)NC1=O,CC1C(=O)NC(=O)NC1=O,CC1C(=O)NC(=O)NC1=O,-1.13
GOMAKLPNAAZVCJ-UHFFFAOYSA-N,Ethyl 3-phenyloxirane-2-carboxylate,CCOC(=O)C1OC1c1ccccc1,CCOC(=O)C1C(O1)c2ccccc2,CCOC(=O)C1OC1C=2C=CC=CC2,-2.4098256190000003
GOMPBNNIROZLMY-UHFFFAOYSA-N,METHYL  2-ALLYL-2-ETHYLMALONURATE,C=CCC(CC)(C(=O)NC(N)=O)C(=O)OC,CCC(CC=C)(C(=O)NC(=O)N)C(=O)OC,CCC(CC=C)(C(=O)NC(=O)N)C(=O)OC,-1.92
GOPIPQQOFPQSOX-UHFFFAOYSA-N,,CC(CCN1CCC(NC(=O)Cc2cccc(C(F)(F)F)c2)CC1)c1ccccc1,CC(CCN1CCC(CC1)NC(=O)Cc2cccc(c2)C(F)(F)F)c3ccccc3,CC(CCN1CCC(CC1)NC(=O)CC=2C=CC=C(C2)C(F)(F)F)C=3C=CC=CC3,-3.5686362000000003
GOQIUYAAAGKJRE-UHFFFAOYSA-N,,C#CCN(Cc1ccc2nc(C)nc(O)c2c1)c1ccc(S(=O)(=O)c2ccccc2)cc1,Cc1nc2ccc(cc2c(n1)O)CN(CC#C)c3ccc(cc3)S(=O)(=O)c4ccccc4,CC=1N=C(C=2C=C(C=CC2N1)CN(CC#C)C=3C=CC(=CC3)S(=O)(=O)C=4C=CC=CC4)O,-6.853872
GOQYKNQRPGWPLP-UHFFFAOYSA-N,HEPTADECYL ALCOHOL,CCCCCCCCCCCCCCCCCO,CCCCCCCCCCCCCCCCCO,OCCCCCCCCCCCCCCCCC,-7.506
GORMSINSWZJIKL-UHFFFAOYSA-N,"3-[(2-ethylhexanoyl)oxy]-2,2-dimethylpropyl 2-ethylhexanoate",CCCCC(CC)C(=O)OCC(C)(C)COC(=O)C(CC)CCCC,CCCCC(CC)C(=O)OCC(C)(C)COC(=O)C(CC)CCCC,CCCCC(CC)C(=O)OCC(C)(C)COC(=O)C(CC)CCCC,-5.021
GOSUDIOMVQLONM-UHFFFAOYSA-N,,COc1cc2c(Nc3cnc(NC(=O)c4ccccc4)nc3)ncnc2cc1OCCCN1C=NCC1,COc1cc2c(cc1OCCCN3CCN=C3)ncnc2Nc4cnc(nc4)NC(=O)c5ccccc5,COC=1C=C2C(=NC=NC2=CC1OCCCN3CCN=C3)NC=4C=NC(=NC4)NC(=O)C=5C=CC=CC5,-3.2225732000000002
GOTBAIXNEHVFNA-UHFFFAOYSA-N,,CNCC1OCCCCC(C)Oc2ccc(NS(C)(=O)=O)cc2C(=O)N(C(C)CO)CC1C,CC1CCCCOC(C(CN(C(=O)c2cc(ccc2O1)NS(=O)(=O)C)C(C)CO)C)CNC,CNCC1OCCCCC(OC2=CC=C(C=C2C(=O)N(CC1C)C(C)CO)NS(=O)(=O)C)C,-4.0
GOTYRUGSSMKFNF-UHFFFAOYSA-N,lenalidomide,Nc1cccc2c1CN(C1CCC(=O)NC1=O)C2=O,c1cc2c(c(c1)N)CN(C2=O)C3CCC(=O)NC3=O,C1CC(=O)NC(=O)C1N2CC3=C(C=CC=C3N)C2=O,-2.046379596
GOUDVMWLWAFVMC-UHFFFAOYSA-N,2-(5-nitrofuran-2-yl)-1H-benzimidazole,O=[N+]([O-])c1ccc(-c2nc3ccccc3[nH]2)o1,c1ccc2c(c1)[nH]c(n2)c3ccc(o3)[N+](=O)[O-],C1=CC=C2C(=C1)NC(=N2)C3=CC=C(O3)[N+](=O)[O-],-3.888
GOUNBVQSLFMICW-UHFFFAOYSA-N,,Cc1ccccc1NC(=O)Nc1ccc(N2CC(COc3ccc(CC(=O)O)cc3)OC2=O)cc1,Cc1ccccc1NC(=O)Nc2ccc(cc2)N3CC(OC3=O)COc4ccc(cc4)CC(=O)O,CC=1C=CC=CC1NC(=O)NC=2C=CC(=CC2)N3CC(OC3=O)COC=4C=CC(=CC4)CC(=O)O,-3.5528419999999996
GOWLARCWZRESHU-UHFFFAOYSA-N,Ferimzone,C/C(=N/Nc1nc(C)cc(C)n1)c1ccccc1C,Cc1ccccc1/C(=N\Nc2nc(cc(n2)C)C)/C,CC=1C=C(N=C(N1)N/N=C(/C)\C=2C=CC=CC2C)C,-3.196
GOXQRTZXKQZDDN-UHFFFAOYSA-N,2-ethylhexyl prop-2-enoate,C=CC(=O)OCC(CC)CCCC,CCCCC(CC)COC(=O)C=C,CCCCC(CC)COC(=O)C=C,-3.2655
GOZCEKPKECLKNO-UHFFFAOYSA-N,Picein,CC(=O)c1ccc(O[C@@H]2O[C@H](CO)[C@@H](O)[C@H](O)[C@H]2O)cc1,CC(=O)c1ccc(cc1)O[C@H]2[C@@H]([C@H]([C@@H]([C@H](O2)CO)O)O)O,CC(=O)C=1C=CC(=CC1)O[C@@H]2O[C@@H]([C@H]([C@@H]([C@H]2O)O)O)CO,-1.1740000000000002
GOZSXEYUWKNFCR-UHFFFAOYSA-N,,Cc1ccn(C(COc2cccc(NC(=O)Cc3ccc4nc(Nc5ccccc5)oc4c3)c2)CC(=O)O)n1,Cc1ccn(n1)C(CC(=O)O)COc2cccc(c2)NC(=O)Cc3ccc4c(c3)oc(n4)Nc5ccccc5,CC=1C=CN(N1)C(COC=2C=CC=C(C2)NC(=O)CC=3C=CC=4N=C(OC4C3)NC=5C=CC=CC5)CC(=O)O,-2.8860566000000003
GPAPPPVRLPGFEQ-UHFFFAOYSA-N,1-chloro-4-(4-chlorobenzenesulfonyl)benzene,O=S(=O)(c1ccc(Cl)cc1)c1ccc(Cl)cc1,c1cc(ccc1S(=O)(=O)c2ccc(cc2)Cl)Cl,ClC=1C=CC(=CC1)S(=O)(=O)C=2C=CC(=CC2)Cl,-5.52381804
GPBICIGCUIZHAC-UHFFFAOYSA-N,,CN(C)Cc1ccc2nc(-c3ccc(Cl)cc3O)sc2c1,CN(C)Cc1ccc2c(c1)sc(n2)c3ccc(cc3O)Cl,CN(C)CC=1C=C2C(N=C(S2)C=3C=CC(=CC3O)Cl)=CC1,-7.3896104000000005
GPBKHZUWQWRROQ-UHFFFAOYSA-N,N-nonylpyridine-3-carboxamide,CCCCCCCCCNC(=O)c1cccnc1,CCCCCCCCCNC(=O)c1cccnc1,CCCCCCCCCNC(=O)C=1C=CC=NC1,-3.14
GPBSBWIRKBAEKB-UHFFFAOYSA-N,,Cc1ccc(NC(=O)c2ccnc(N3CCCCC3)c2)cc1-n1cnc2ccc(N3CCCN(C)CC3)cc2c1=O,Cc1ccc(cc1n2cnc3ccc(cc3c2=O)N4CCCN(CC4)C)NC(=O)c5ccnc(c5)N6CCCCC6,CN1CCCN(CC1)C=2C=CC=3N=CN(C(=O)C3C2)C=4C=C(C=CC4C)NC(=O)C=5C=CN=C(C5)N6CCCCC6,-4.4814861
GPBSRPLIMMWMQS-UHFFFAOYSA-O,1-benzyl-3-carbamoylpyridin-1-ium chloride,NC(=O)c1ccc[n+](Cc2ccccc2)c1,c1ccc(cc1)C[n+]2cccc(c2)C(=O)N,NC(=O)C=1C=CC=[N+](C1)CC=2C=CC=CC2,0.293605187
GPBUTTSWJNPYJL-UHFFFAOYSA-N,"2,2-DIMETHYLOCTANE",CCCCCCC(C)(C)C,CCCCCCC(C)(C)C,CCCCCCC(C)(C)C,-6.125
GPBYDCUKLUJVJM-UHFFFAOYSA-N,,O=C1CC(c2ccccc2)C(=O)NC(c2ccccc2)C/C=C\CC(c2ccccc2)N1,c1ccc(cc1)C2C/C=C\CC(NC(=O)C(CC(=O)N2)c3ccccc3)c4ccccc4,O=C1CC(C(=O)NC(C/C=C\CC(N1)C2=CC=CC=C2)C3=CC=CC=C3)C4=CC=CC=C4,-5.26
GPCMOMXCXQLILH-UHFFFAOYSA-N,,O=[N+]([O-])c1cc(S(=O)(=O)Nc2ccc(O)cc2)ccc1Cl,c1cc(ccc1NS(=O)(=O)c2ccc(c(c2)[N+](=O)[O-])Cl)O,OC=1C=CC(=CC1)NS(=O)(=O)C=2C=CC(=C(C2)[N+](=O)[O-])Cl,-3.7644716000000003
GPEFXVASOXFFIR-UHFFFAOYSA-N,,COc1cc2ncnc(Oc3cccc(NC(=O)c4ccnc(N5CCOCC5)c4)c3)c2cc1OC,COc1cc2c(cc1OC)ncnc2Oc3cccc(c3)NC(=O)c4ccnc(c4)N5CCOCC5,COC=1C=C2N=CN=C(C2=CC1OC)OC=3C=CC=C(C3)NC(=O)C=4C=CN=C(C4)N5CCOCC5,-4.5686362
GPEMROPNYWZYQU-UHFFFAOYSA-N,,CCn1c(C)c(C)c2cc(NC(=O)CCc3ccc(S(C)(=O)=O)cc3)ccc21,CCn1c(c(c2c1ccc(c2)NC(=O)CCc3ccc(cc3)S(=O)(=O)C)C)C,CCN1C(=C(C2=C1C=CC(=C2)NC(=O)CCC=3C=CC(=CC3)S(=O)(=O)C)C)C,-5.366531500000001
GPFAJKDEDBRFOS-UHFFFAOYSA-N,PHOLCODINE,CN1CC[C@]23c4c5ccc(OCCN6CCOCC6)c4O[C@H]2[C@@H](O)C=CC3[C@H]1C5,CN1CC[C@]23c4c5ccc(c4O[C@H]2[C@H](C=CC3[C@H]1C5)O)OCCN6CCOCC6,CN1CC[C@@]23[C@H]4OC5=C2C(=CC=C5OCCN6CCOCC6)C[C@@H]1C3C=C[C@@H]4O,-1.2990000000000002
GPKJFSJOBJNXDQ-UHFFFAOYSA-N,,CC(=O)N1CCN(c2c(S(=O)(=O)C(C)C)ccc(NC(=O)C(C)(O)C(F)(F)F)c2Cl)CC1,CC(C)S(=O)(=O)c1ccc(c(c1N2CCN(CC2)C(=O)C)Cl)NC(=O)C(C)(C(F)(F)F)O,CC(C)S(=O)(=O)C=1C=CC(=C(C1N2CCN(CC2)C(=O)C)Cl)NC(=O)C(C)(O)C(F)(F)F,-4.3187587999999995
GPKJTRJOBQGKQK-UHFFFAOYSA-N,quinacrine,CCN(CC)CCCC(C)Nc1c2ccc(Cl)cc2nc2ccc(OC)cc12,CCN(CC)CCCC(C)Nc1c2ccc(cc2nc3c1cc(cc3)OC)Cl,CCN(CC)CCCC(C)NC1=C2C=C(C=CC2=NC3=C1C=CC(=C3)Cl)OC,-2.64
GPLOHVHPULDLOP-UHFFFAOYSA-N,5-methyl-5-phenylhexan-3-one,Cc1ccc(S(=O)(=O)/C(C#N)=C/N2CC(=O)NC2=S)cc1,Cc1ccc(cc1)S(=O)(=O)/C(=C/N2CC(=O)NC2=S)/C#N,CC=1C=CC(=CC1)S(=O)(=O)/C(=C/N2CC(=O)NC2=S)/C#N,-3.529149648
GPLRAVKSCUXZTP-UHFFFAOYSA-N,"3-(2,3-dihydroxypropoxy)propane-1,2-diol",OCC(O)COCC(O)CO,C(C(COCC(CO)O)O)O,OCC(O)COCC(O)CO,0.77941977
GPMLJOOQCIHFET-UHFFFAOYSA-N,"2,4-Dimethyl-4-phenyltetrahydrofuran",CC1CC(C)(c2ccccc2)CO1,CC1CC(CO1)(C)c2ccccc2,CC1CC(CO1)(C)C=2C=CC=CC2,-2.433118973
GPMXUUPHFNMNDH-UHFFFAOYSA-N,,O=C(CCCN1CCC(O)(c2cccc(C(F)(F)F)c2)CC1)c1ccc(F)cc1,c1cc(cc(c1)C(F)(F)F)C2(CCN(CC2)CCCC(=O)c3ccc(cc3)F)O,FC(F)(F)C=1C=C(C=CC1)C2(CCN(CC2)CCCC(=O)C3=CC=C(C=C3)F)O,0.5277
GPNYZBKIGXGYNU-UHFFFAOYSA-N,2-tert-butyl-6-[(3-tert-butyl-5-ethyl-2-hydroxyphenyl)methyl]-4-ethylphenol,CCc1cc(Cc2cc(CC)cc(C(C)(C)C)c2O)c(O)c(C(C)(C)C)c1,CCc1cc(c(c(c1)C(C)(C)C)O)Cc2cc(cc(c2O)C(C)(C)C)CC,CCC=1C=C(C(=C(C1)C(C)(C)C)O)CC=2C=C(C=C(C2O)C(C)(C)C)CC,-5.567
GPNZSHBQHQEFRS-UHFFFAOYSA-N,"2,6-DEMETHYL-KNI-727",CC(C)(C)NC(=O)C1N(C(=O)C(O)C(Cc2ccccc2)NC(=O)COc2ccccc2)CSC1(C)C,CC1(C(N(CS1)C(=O)C(C(Cc2ccccc2)NC(=O)COc3ccccc3)O)C(=O)NC(C)(C)C)C,CC(C)(C)NC(=O)C1N(CSC1(C)C)C(=O)C(O)C(CC2=CC=CC=C2)NC(=O)COC3=CC=CC=C3,-3.83
GPRBEKHLDVQUJE-UHFFFAOYSA-N,cefotaxime sodium,CO/N=C(/C(=O)N[C@@H]1C(=O)N2C(C(=O)O)=C(COC(C)=O)CS[C@H]12)c1csc(N)n1,CC(=O)OCC1=C(N2[C@@H]([C@@H](C2=O)NC(=O)/C(=N/OC)/c3csc(n3)N)SC1)C(=O)O,CC(=O)OCC1=C(N2[C@@H]([C@@H](C2=O)NC(=O)/C(=N/OC)/C3=CSC(=N3)N)SC1)C(=O)O,-0.979957893
GPRSVRUWNHYWCY-UHFFFAOYSA-N,,Cc1ccccc1NC(=O)Nc1ccc(CC(=O)N(Cc2ccccc2)CC2CCN(CCCC(=O)O)CC2)cc1,Cc1ccccc1NC(=O)Nc2ccc(cc2)CC(=O)N(Cc3ccccc3)CC4CCN(CC4)CCCC(=O)O,CC=1C=CC=CC1NC(=O)NC=2C=CC(=CC2)CC(=O)N(CC3CCN(CC3)CCCC(=O)O)CC=4C=CC=CC4,-2.8239087000000005
GPRYKVSEZCQIHD-UHFFFAOYSA-N,p-Aminoacetophenone,CC(=O)c1ccc(N)cc1,CC(=O)c1ccc(cc1)N,O=C(C1=CC=C(C=C1)N)C,-1.6059999999999999
GPSDUZXPYCFOSQ-UHFFFAOYSA-N,m-toluic_acid,Cc1cccc(C(=O)O)c1,Cc1cccc(c1)C(=O)O,O=C(O)C1=CC=CC(=C1)C,-2.1428