inchikey,Name,SMILES_stand,SMILES,kekSmiles,logS
BRBAEHHXGZRCBK-UHFFFAOYSA-N,Pentrinitrol,O=[N+]([O-])OCC(CO)(CO[N+](=O)[O-])CO[N+](=O)[O-],C(C(CO[N+](=O)[O-])(CO[N+](=O)[O-])CO[N+](=O)[O-])O,[N+](=O)([O-])OCC(CO[N+](=O)[O-])(CO[N+](=O)[O-])CO,-1.585
BRBKOPJOKNSWSG-UHFFFAOYSA-N,sulfanilyl guanadine,N=C(N)NS(=O)(=O)c1ccc(N)cc1,c1cc(ccc1N)S(=O)(=O)NC(=N)N,S(=O)(=O)(N=C(N)N)C=1C=CC(=CC1)N,-1.99
BRDBVUKNJZDJFN-UHFFFAOYSA-N,,Clc1cccc(Nc2nccc(-c3cnc[nH]3)n2)c1,c1cc(cc(c1)Cl)Nc2nccc(n2)c3cnc[nH]3,ClC=1C=CC=C(C1)NC=2N=CC=C(N2)C3=CN=CN3,-5.2596373
BRDGMKWFGLKVNI-UHFFFAOYSA-N,,Cc1cc(C)cc(-c2[nH]c3ccc(C(C)(C)C(=O)N4CCCC4)cc3c2CCNC(=N)Nc2nccs2)c1,Cc1cc(cc(c1)c2c(c3cc(ccc3[nH]2)C(C)(C)C(=O)N4CCCC4)CCNC(=N)Nc5nccs5)C,CC=1C=C(C=C(C1)C=2NC=3C=CC(=CC3C2CCNC(=N)NC4=NC=CS4)C(C)(C)C(=O)N5CCCC5)C,-6.362510299999999
BREVZCHILCNKPX-UHFFFAOYSA-N,,COC1CN(C)C(=O)c2ccc(NC(=O)C3CC3)cc2OCC(C)N(Cc2cccnc2)CC1C,CC1CN(C(COc2cc(ccc2C(=O)N(CC1OC)C)NC(=O)C3CC3)C)Cc4cccnc4,COC1CN(C(=O)C2=CC=C(C=C2OCC(N(CC1C)CC3=CC=CN=C3)C)NC(=O)C4CC4)C,-4.051
BRGCRLQEUWYOLI-UHFFFAOYSA-N,,N#Cc1ccccc1Oc1cccc(C(=O)Nc2ccc(C(=O)O)cn2)c1,c1ccc(c(c1)C#N)Oc2cccc(c2)C(=O)Nc3ccc(cn3)C(=O)O,OC(=O)C=1C=CC(=NC1)NC(=O)C=2C=CC=C(C2)OC=3C=CC=CC3C#N,-2.537602
BRHDDEIRQPDPMG-UHFFFAOYSA-N,2-(5-ethenyl-5-methyloxolan-2-yl)propan-2-ol,C=CC1(C)CCC(C(C)(C)O)O1,CC1(CCC(O1)C(C)(C)O)C=C,CC(C)(O)C1CCC(O1)(C)C=C,-1.799864229
BRHZYCORJCBXDP-UHFFFAOYSA-N,,COc1cc2ncnc(Nc3cccc(N)c3)c2cc1OCCCN1CCOCC1,COc1cc2c(cc1OCCCN3CCOCC3)c(ncn2)Nc4cccc(c4)N,COC=1C=C2N=CN=C(C2=CC1OCCCN3CCOCC3)NC=4C=CC=C(C4)N,-2.6382722000000003
BRKFTWHPLMMNHF-UHFFFAOYSA-N,"Benzenesulfonic acid, 5-amino-2-methyl-",Cc1ccc(N)cc1S(=O)(=O)O,Cc1ccc(cc1S(=O)(=O)O)N,O=S(=O)(C1=C(C=CC(=C1)N)C)O,-1.62
BRMNOAQXXUHEOH-UHFFFAOYSA-N,,COc1cc2c(Nc3ccc(Oc4cccc(NCC(=O)NC5CC5)c4)cc3)c(C#N)cnc2cc1OCCCN1CCOCC1,COc1cc2c(cc1OCCCN3CCOCC3)ncc(c2Nc4ccc(cc4)Oc5cccc(c5)NCC(=O)NC6CC6)C#N,COC=1C=C2C(=C(C=NC2=CC1OCCCN3CCOCC3)C#N)NC=4C=CC(=CC4)OC=5C=CC=C(C5)NCC(=O)NC6CC6,-5.3767507000000005
BRNZJKXGIWZATR-UHFFFAOYSA-N,,CCn1c2ccc(NC(=O)N3CCOCC3)c(C)c2c2cccc(C)c21,CCn1c2ccc(c(c2c3c1c(ccc3)C)C)NC(=O)N4CCOCC4,CCN1C=2C=CC(=C(C2C3=C1C(=CC=C3)C)C)NC(=O)N4CCOCC4,-5.19382
BRPOVUNVTUCYNN-UHFFFAOYSA-N,7-(3-amino-2-ethylazetidin-1-yl)-1-cyclopropyl-6-fluoro-4-oxoquinoline-3-carboxylic acid,CCC1C(N)CN1c1cc2c(cc1F)c(=O)c(C(=O)O)cn2C1CC1,CCC1C(CN1c2cc3c(cc2F)c(=O)c(cn3C4CC4)C(=O)O)N,FC=1C(=CC=2N(C=C(C(=O)C2C1)C(=O)O)C3CC3)N4C(C(C4)N)CC,-3.912
BRPSWMCDEYMRPE-UHFFFAOYSA-N,"4-[1,1-bis(4-hydroxyphenyl)ethyl]phenol",CC(c1ccc(O)cc1)(c1ccc(O)cc1)c1ccc(O)cc1,CC(c1ccc(cc1)O)(c2ccc(cc2)O)c3ccc(cc3)O,CC(C=1C=CC(=CC1)O)(C=2C=CC(=CC2)O)C=3C=CC(=CC3)O,-4.086779879
BRQMAAFGEXNUOL-UHFFFAOYSA-N,tert-butoxy 2-ethylhexyl carbonate,CCCCC(CC)COC(=O)OOC(C)(C)C,CCCCC(CC)COC(=O)OOC(C)(C)C,CCCCC(CC)COC(=O)OOC(C)(C)C,-4.659979257
BRRCTYIIDDWBOG-UHFFFAOYSA-N,disodium 6-hydroxy-5-[(E)-2-(4-sulfonatophenyl)diazen-1-yl]naphthalene-2-sulfonate,O=C1C=Cc2cc(S(=O)(=O)O)ccc2/C1=N\Nc1ccc(S(=O)(=O)O)cc1,c1cc(ccc1N/N=C/2\c3ccc(cc3C=CC2=O)S(=O)(=O)O)S(=O)(=O)O,OS(=O)(=O)C=1C=CC(=CC1)N/N=C\2/C(=O)C=CC3=C2C=CC(=C3)S(=O)(=O)O,-1.3768734580000002
BRRJALXGYRSYAI-UHFFFAOYSA-N,"4-Cycloocten-1-amine, N,N-dimethyl-",CN(C)C1CC/C=C\CCC1,CN(C)C1CCC/C=C\CC1,N(C1CC/C=C\CCC1)(C)C,-1.6
BRRSNXCXLSVPFC-UHFFFAOYSA-N,"2,3,4-TRIHYDROXYBENZOIC ACID",O=C(O)c1ccc(O)c(O)c1O,c1cc(c(c(c1C(=O)O)O)O)O,C=1(C(=C(C(=CC1)O)O)O)C(=O)O,-2.231
BRRVXFOKWJKTGG-UHFFFAOYSA-N,"3,3,5-Trimethylcyclohexanol",CC1CC(O)CC(C)(C)C1,CC1CC(CC(C1)(C)C)O,CC1CC(CC(C1)(C)C)O,-1.991659848
BRSCQJDXWDOAOU-UHFFFAOYSA-N,,O=CN(O)C(CCc1ccccc1)CS(=O)(=O)N1CCN(c2ccccn2)CC1,c1ccc(cc1)CCC(CS(=O)(=O)N2CCN(CC2)c3ccccn3)N(C=O)O,ON(C=O)C(CCC=1C=CC=CC1)CS(=O)(=O)N2CCN(CC2)C=3C=CC=CN3,-4.8239087
BRSJKDUSGHPJJY-UHFFFAOYSA-N,3-PROPanoYLOXYMETHYL-5-FLUOROURACIL,CCC(=O)OCn1c(=O)[nH]cc(F)c1=O,CCC(=O)OCn1c(=O)c(c[nH]c1=O)F,CCC(=O)OCN1C(=O)NC=C(C1=O)F,-0.77
BRTUWPIQJPPZBD-UHFFFAOYSA-N,,COc1cc(CC(=O)N2CCC(CCOCCC(=O)O)CC2)cc2oc(Nc3ccccc3)nc12,COc1cc(cc2c1nc(o2)Nc3ccccc3)CC(=O)N4CCC(CC4)CCOCCC(=O)O,COC=1C=C(C=C2C1N=C(O2)NC=3C=CC=CC3)CC(=O)N4CCC(CC4)CCOCCC(=O)O,-3.0409585999999997
BRUQQQPBMZOVGD-UHFFFAOYSA-N,oxycodone hydrochloride,COc1ccc2c3c1O[C@H]1C(=O)CC[C@@]4(O)[C@@H](C2)N(C)CC[C@]314,CN1CC[C@]23c4c5ccc(c4O[C@H]2C(=O)CC[C@]3([C@H]1C5)O)OC,CN1CC[C@]23[C@@H]4C(=O)CC[C@]2([C@H]1CC5=C3C(=C(C=C5)OC)O4)O,-0.32448411
BRVWBJZREZWBRX-UHFFFAOYSA-N,N1-(2-NITROPHENYL)SULFANILAMIDE,Nc1ccc(S(=O)(=O)Nc2ccccc2[N+](=O)[O-])cc1,c1ccc(c(c1)NS(=O)(=O)c2ccc(cc2)N)[N+](=O)[O-],NC1=CC=C(C=C1)S(=O)(=O)NC2=CC=CC=C2[N+](=O)[O-],-4.49
BRWSDEFCJGIRLV-UHFFFAOYSA-N,"Benzenamine, N-phenyl-, styrenated",CC(c1ccccc1)c1ccc(Nc2ccc(C(C)c3ccccc3)cc2)cc1,CC(c1ccccc1)c2ccc(cc2)Nc3ccc(cc3)C(C)c4ccccc4,CC(C=1C=CC=CC1)C=2C=CC(=CC2)NC=3C=CC(=CC3)C(C)C=4C=CC=CC4,-5.964084381
BSGOEODOPFFBJU-UHFFFAOYSA-N,,COc1cc2c(Nc3cnc(C(=O)NCc4ccsc4)nc3)ncnc2cc1OCCCN1CCOCC1,COc1cc2c(cc1OCCCN3CCOCC3)ncnc2Nc4cnc(nc4)C(=O)NCc5ccsc5,COC=1C=C2C(=NC=NC2=CC1OCCCN3CCOCC3)NC=4C=NC(=NC4)C(=O)NCC=5C=CSC5,-5.0087739000000004
BSHIRFNBOCGGRI-UHFFFAOYSA-N,,COCC(=O)N1CCN(S(=O)(=O)c2ccc(NC(=O)C(C)(O)C(F)(F)F)c(Cl)c2)CC1,CC(C(=O)Nc1ccc(cc1Cl)S(=O)(=O)N2CCN(CC2)C(=O)COC)(C(F)(F)F)O,COCC(=O)N1CCN(CC1)S(=O)(=O)C=2C=CC(=C(C2)Cl)NC(=O)C(C)(O)C(F)(F)F,-2.853872
BSIHCYCJEOIHQZ-UHFFFAOYSA-N,propyl 3-chloro-4-hydroxybenzoate,CCCOC(=O)c1ccc(O)c(Cl)c1,CCCOC(=O)c1ccc(c(c1)Cl)O,CCCOC(=O)C1=CC(=C(C=C1)O)Cl,-3.3789999999999996
BSIZUMJRKYHEBR-UHFFFAOYSA-N,,COc1ccc(S(=O)(=O)N(Cc2cccnc2)C(C(=O)NO)C(C)C)cc1,CC(C)C(C(=O)NO)N(Cc1cccnc1)S(=O)(=O)c2ccc(cc2)OC,COC=1C=CC(=CC1)S(=O)(=O)N(CC=2C=CC=NC2)C(C(C)C)C(=O)NO,-2.623423
BSJMWHQBCZFXBR-UHFFFAOYSA-N,atovaquone,O=C1C(=O)c2ccccc2C(O)=C1C1CCC(c2ccc(Cl)cc2)CC1,c1ccc2c(c1)C(=C(C(=O)C2=O)C3CCC(CC3)c4ccc(cc4)Cl)O,C1CC(CCC1C2=CC=C(C=C2)Cl)C3=C(C4=CC=CC=C4C(=O)C3=O)O,-5.931008229
BSMGLVDZZMBWQB-UHFFFAOYSA-N,2-methyl-1-phenylpropan-1-one,CC(C)C(=O)c1ccccc1,CC(C)C(=O)c1ccccc1,CC(C)C(=O)C=1C=CC=CC1,-2.35680763
BSMLNSYDNILLJV-UHFFFAOYSA-N,,COc1cc2ncnc(Nc3cccc(-c4ccsc4)c3)c2cc1OCCCN1CCOCC1,COc1cc2c(cc1OCCCN3CCOCC3)c(ncn2)Nc4cccc(c4)c5ccsc5,COC=1C=C2N=CN=C(C2=CC1OCCCN3CCOCC3)NC=4C=CC=C(C4)C=5C=CSC5,-6.721246400000001
BSNKHEKTRWNNAC-UHFFFAOYSA-N,"1,1'-ethane-1,2-diylbis(4-nitrobenzene)",O=[N+]([O-])c1ccc(CCc2ccc([N+](=O)[O-])cc2)cc1,c1cc(ccc1CCc2ccc(cc2)[N+](=O)[O-])[N+](=O)[O-],O=[N+]([O-])C=1C=CC(=CC1)CCC=2C=CC(=CC2)[N+](=O)[O-],-4.5899429000000005
BSPIUCWIDOJHQH-UHFFFAOYSA-N,N1-ISONICOTINOYL-N2-HEXANOYLHYDRAZINE,CCCCCC(=O)NNC(=O)c1ccncc1,CCCCCC(=O)NNC(=O)c1ccncc1,CCCCCC(=O)NNC(=O)C1=CC=NC=C1,-1.24
BSPVMVATMSSHAU-UHFFFAOYSA-N,fenoprofen,NC1=NC2NCNC2C(=O)N1,C1NC2C(N1)N=C(NC2=O)N,N1CNC2C1C(=O)NC(=N2)N,-3.698
BSQLQMLFTHJVKS-UHFFFAOYSA-N,"2-Chloro-1,3-benzothiazole",Clc1nc2ccccc2s1,c1ccc2c(c1)nc(s2)Cl,ClC=1SC=2C=CC=CC2N1,-2.734181715
BSVGCJGACKDNDR-UHFFFAOYSA-N,"ENTACAPONE ANALOG (2 c); (E)-2-Cyano-N,N-diethyl-3-(3-tert-butylaminocarbonyloxy-4-hydroxy-5-nitrophenyl)propenamide",CCN(CC)C(=O)/C(C#N)=C\c1cc(OC(=O)NC(C)(C)C)c(O)c([N+](=O)[O-])c1,CCN(CC)C(=O)/C(=C\c1cc(c(c(c1)OC(=O)NC(C)(C)C)O)[N+](=O)[O-])/C#N,CCN(CC)C(=O)/C(=C\C1=CC(=C(C(=C1)[N+](=O)[O-])O)OC(=O)NC(C)(C)C)/C#N,-3.53
BSYNRYMUTXBXSQ-UHFFFAOYSA-N,acetylsalicylic_acid,CC(=O)Oc1ccccc1C(=O)O,CC(=O)Oc1ccccc1C(=O)O,O=C(OC1=C(C=CC=C1)C(=O)O)C,-1.6015
BSZXAFXFTLXUFV-UHFFFAOYSA-N,"1,1'-ethane-1,1-diyldibenzene",CC(c1ccccc1)c1ccccc1,CC(c1ccccc1)c2ccccc2,CC(C=1C=CC=CC1)C=2C=CC=CC2,-4.644283813
BTBIATCZGBXLGC-UHFFFAOYSA-N,"6,7-diethylpteridin-2-amine",CCc1nc2cnc(N)nc2nc1CC,CCc1c(nc2c(n1)cnc(n2)N)CC,CCC1=NC2=CN=C(N=C2N=C1CC)N,-3.04
BTFAUMMRKLKUJP-UHFFFAOYSA-N,8-STYRYLTHEOPHYLLINE,Cn1c(=O)c2[nH]c(/C=C/c3ccccc3)nc2n(C)c1=O,Cn1c2c(c(=O)n(c1=O)C)[nH]c(n2)/C=C/c3ccccc3,CN1C(=O)N(C2=C(C1=O)NC(=N2)/C=C/C3=CC=CC=C3)C,-6.66
BTFJIXJJCSYFAL-UHFFFAOYSA-N,Icosan-1-ol,CCCCCCCCCCCCCCCCCCCCO,CCCCCCCCCCCCCCCCCCCCO,CCCCCCCCCCCCCCCCCCCCO,-5.475012175
BTGGSWBKRYMHQK-UHFFFAOYSA-N,3-METHYL-4-ETHYLHEPTANE,CCCC(CC)C(C)CC,CCCC(CC)C(C)CC,CCCC(CC)C(C)CC,-6.242999999999999
BTGUTYBGUMWGBV-UHFFFAOYSA-N,"D-Gluconic acid, 2,4:3,5-di-O-methylene-",O=C(O)C1OCOC2C(CO)OCOC12,C1OC(C2C(O1)C(OCO2)C(=O)O)CO,C12C(OCOC1C(OCO2)CO)C(=O)O,-1.413
BTHXXWISWVXYDL-UHFFFAOYSA-N,,COc1cc2ncnc(Nc3cccc(Cl)c3F)c2cc1OCCN1CCCC1,COc1cc2c(cc1OCCN3CCCC3)c(ncn2)Nc4cccc(c4F)Cl,COC=1C=C2N=CN=C(C2=CC1OCCN3CCCC3)NC=4C=CC=C(C4F)Cl,-4.9100949
BTJIUGUIPKRLHP-UHFFFAOYSA-N,p-Nitrophenol,O=[N+]([O-])c1ccc(O)cc1,c1cc(ccc1[N+](=O)[O-])O,OC=1C=CC(=CC1)[N+](=O)[O-],-0.84
BTJZXHFFWVMVAN-UHFFFAOYSA-O,,CN(C)CC[n+]1cc2ccccc2c2nn(-c3ccc(Cl)cc3)c(O)c21,CN(C)CC[n+]1cc2ccccc2c3c1c(n(n3)c4ccc(cc4)Cl)O,CN(C)CC[N+]1=CC=2C=CC=CC2C=3C1=C(N(N3)C=4C=CC(=CC4)Cl)O,-4.4183628
BTLIJKMGXDRNKG-UHFFFAOYSA-N,,CCNc1nc(Nc2ccc(S(=O)(=O)NCCOC)cc2)ncc1C#N,CCNc1c(cnc(n1)Nc2ccc(cc2)S(=O)(=O)NCCOC)C#N,CCNC=1N=C(N=CC1C#N)NC=2C=CC(=CC2)S(=O)(=O)NCCOC,-5.366531500000001
BTLXPCBPYBNQNR-UHFFFAOYSA-N,1-HYDROXYANTHRAQUINONE,O=C1c2ccccc2C(=O)c2c(O)cccc21,c1ccc2c(c1)C(=O)c3cccc(c3C2=O)O,OC=1C=CC=C2C1C(=O)C3=C(C=CC=C3)C2=O,-4.42115
BTNXBLUGMAMSSH-UHFFFAOYSA-N,SUBERONITRILE,N#CCCCCCCC#N,C(CCCC#N)CCC#N,N#CCCCCCCC#N,-1.081046144
BTPSVWRGOYIGQX-UHFFFAOYSA-N,,COc1ccc(Oc2cc(Nc3ccc(C(=O)N4CCC(N5CCCC5)CC4)cc3)ncn2)cc1,COc1ccc(cc1)Oc2cc(ncn2)Nc3ccc(cc3)C(=O)N4CCC(CC4)N5CCCC5,COC=1C=CC(=CC1)OC=2C=C(N=CN2)NC=3C=CC(=CC3)C(=O)N4CCC(CC4)N5CCCC5,-2.5228787
BTQMNEKPMOZIDW-UHFFFAOYSA-N,"N-hydroxy-4-methyl-2,2-bis(2-methylpropyl)pentanamide",CC(C)CC(CC(C)C)(CC(C)C)C(=O)NO,CC(C)CC(CC(C)C)(CC(C)C)C(=O)NO,CC(C)CC(CC(C)C)(CC(C)C)C(=O)NO,-4.0
BTTWGWABSYOENM-UHFFFAOYSA-N,,CC1(C)CCCC(C)(C)N1CCOc1ccc(-c2cc(C(N)=O)c(NC(N)=O)s2)cc1,CC1(CCCC(N1CCOc2ccc(cc2)c3cc(c(s3)NC(=O)N)C(=O)N)(C)C)C,CC1(CCCC(N1CCOC=2C=CC(=CC2)C3=CC(=C(S3)NC(=O)N)C(=O)N)(C)C)C,-3.5228787000000006
BTVUUFSWVRQJSH-UHFFFAOYSA-N,,CCCCC(CC)CNC(=O)C(Cc1ccc(O)cc1)NC(=O)C1CCCN1C(=O)Cc1cccc2ccccc12,CCCCC(CC)CNC(=O)C(Cc1ccc(cc1)O)NC(=O)C2CCCN2C(=O)Cc3cccc4c3cccc4,CCCCC(CC)CNC(=O)C(CC=1C=CC(=CC1)O)NC(=O)C2CCCN2C(=O)CC=3C=CC=C4C3C=CC=C4,-5.3565473
BTWMAWYAYFSBNC-UHFFFAOYSA-O,"hydrogen [4-[[4-(diethylamino)phenyl][4-[ethyl(3-sulphonatobenzyl)amino]phenyl]methylene]cyclohexa-2,5-dien-1-ylidene](ethyl)(3-sulphonatobenzyl)ammonium, sodium salt",CCN(CC)c1ccc([C+](c2ccc(N(CC)Cc3cccc(S(=O)(=O)O)c3)cc2)c2ccc(N(CC)Cc3cccc(S(=O)(=O)O)c3)cc2)cc1,CCN(CC)c1ccc(cc1)[C+](c2ccc(cc2)N(CC)Cc3cccc(c3)S(=O)(=O)O)c4ccc(cc4)N(CC)Cc5cccc(c5)S(=O)(=O)O,CCN(CC)C=1C=CC(=CC1)[C+](C=2C=CC(=CC2)N(CC)CC=3C=CC=C(C3)S(=O)(=O)O)C=4C=CC(=CC4)N(CC)CC=5C=CC=C(C5)S(=O)(=O)O,-0.771701345
BTWNKPNDKBRQRN-UHFFFAOYSA-N,"Benzenesulfonamide, 4-amino-N-(3,5-dimethyl-4-is",Cc1noc(C)c1NS(=O)(=O)c1ccc(N)cc1,Cc1c(c(on1)C)NS(=O)(=O)c2ccc(cc2)N,S(=O)(=O)(NC1=C(ON=C1C)C)C2=CC=C(C=C2)N,-3.1839999999999997
BTYYWOYVBXILOJ-UHFFFAOYSA-N,,CC#CC(=O)Nc1ccc2ncnc(Nc3cccc(Br)c3)c2c1,CC#CC(=O)Nc1ccc2c(c1)c(ncn2)Nc3cccc(c3)Br,CC#CC(=O)NC=1C=CC=2N=CN=C(C2C1)NC=3C=CC=C(C3)Br,-6.1079054
BUADUHVXMFJVLH-UHFFFAOYSA-N,TRIAZOXIDE,O=[n+]1[nH]c(-n2ccnc2)nc2ccc(Cl)cc21,c1cc2c(cc1Cl)[n+](=O)[nH]c(n2)n3ccnc3,N1C(=NC2=CC=C(C=C2[N+]1=O)Cl)N3C=NC=C3,-3.862
BUBMNUKMCHTIRR-UHFFFAOYSA-N,"Glycine, N-(2,4,6-trinitrophenyl)-",O=C(O)CNc1c([N+](=O)[O-])cc([N+](=O)[O-])cc1[N+](=O)[O-],c1c(cc(c(c1[N+](=O)[O-])NCC(=O)O)[N+](=O)[O-])[N+](=O)[O-],OC(=O)CNC=1C(=CC(=CC1[N+](=O)[O-])[N+](=O)[O-])[N+](=O)[O-],-2.3921
BUBQYMREWGHOQQ-UHFFFAOYSA-N,,O=C(CCc1ccc(Cl)cc1)N1CCN(c2ncnc3sccc23)CC1,c1cc(ccc1CCC(=O)N2CCN(CC2)c3c4ccsc4ncn3)Cl,ClC=1C=CC(=CC1)CCC(=O)N2CCN(CC2)C=3N=CN=C4C3C=CS4,-5.5850267
BUCOQPHDYUOJSI-UHFFFAOYSA-N,,CCC(=O)C1C(=O)CC(C(=O)O)CC1=O,CCC(=O)C1C(=O)CC(CC1=O)C(=O)O,C1(CC(=O)C(C(=O)C1)C(=O)CC)C(=O)O,-2.431
BUCORZSTKDOEKQ-UHFFFAOYSA-N,Librium,C/N=C1/CN(O)C(c2ccccc2)=c2cc(Cl)ccc2=N1,C/N=C\1/CN(C(=c2cc(ccc2=N1)Cl)c3ccccc3)O,ClC1=CC2=C(N(C/C(=N\C)/N=C2C=C1)O)C3=CC=CC=C3,-2.178
BUCORZSTKDOEKQ-UHFFFAOYSA-O,"7-chloro-4-hydroxy-N-methyl-5-phenyl-3H-1,4-benzodiazepin-4-ium-2-amine",CNC1=Nc2ccc(Cl)cc2C(c2ccccc2)=[N+](O)C1,CNC1=Nc2ccc(cc2C(=[N+](C1)O)c3ccccc3)Cl,CNC1=NC2=C(C=C(C=C2)Cl)C(=[N+](C1)O)C3=CC=CC=C3,-3.39
BUCSZBGRXQNNMQ-UHFFFAOYSA-N,N-(4-ETHOXYPHENYL)-4-NITROBENZENESULFONAMIDE,CCOc1ccc(NS(=O)(=O)c2ccc([N+](=O)[O-])cc2)cc1,CCOc1ccc(cc1)NS(=O)(=O)c2ccc(cc2)[N+](=O)[O-],CCOC1=CC=C(C=C1)NS(=O)(=O)C2=CC=C(C=C2)[N+](=O)[O-],-4.72
BUCVHYZCVGZYCH-UHFFFAOYSA-N,,NC(=O)Nc1ccc(-c2ccc(F)cc2F)cc1C(N)=O,c1cc(c(cc1c2ccc(cc2F)F)C(=O)N)NC(=O)N,NC(=O)NC=1C=CC(=CC1C(=O)N)C=2C=CC(=CC2F)F,-5.229148
BUEWXUCDPTUDCP-UHFFFAOYSA-N,,C/C(=C\c1ccncc1)C(=O)Nc1ccc2c(c1)c1ccccc1n2S(C)(=O)=O,C/C(=C\c1ccncc1)/C(=O)Nc2ccc3c(c2)c4ccccc4n3S(=O)(=O)C,C/C(=C\C=1C=CN=CC1)/C(=O)NC=2C=CC=3N(C=4C=CC=CC4C3C2)S(=O)(=O)C,-6.3372421999999995
BUFWVRKWOYDFIG-UHFFFAOYSA-N,,C#CCN(Cc1ccc2nc(CN(CCO)CCO)nc(O)c2c1)c1ccc(C(=O)NCc2cccc([N+](=O)[O-])c2)cc1,C#CCN(Cc1ccc2c(c1)c(nc(n2)CN(CCO)CCO)O)c3ccc(cc3)C(=O)NCc4cccc(c4)[N+](=O)[O-],OCCN(CCO)CC=1N=C(C=2C=C(C=CC2N1)CN(CC#C)C=3C=CC(=CC3)C(=O)NCC=4C=CC=C(C4)[N+](=O)[O-])O,-6.3829997
BUGYDGFZZOZRHP-UHFFFAOYSA-N,memantine hydrochloride,CC12CC3CC(C)(C1)CC(N)(C3)C2,CC12CC3CC(C1)(CC(C3)(C2)N)C,CC12CC3CC(C1)(CC(C3)(C2)N)C,-0.8568496790000001
BUHNCQOJJZAOMJ-UHFFFAOYSA-N,ZXI 8901,CC(C)C(C(=O)OC(C#N)c1cccc(Oc2ccc(Br)cc2)c1)c1ccc(OC(F)F)cc1,CC(C)C(c1ccc(cc1)OC(F)F)C(=O)OC(C#N)c2cccc(c2)Oc3ccc(cc3)Br,CC(C)C(C(=O)OC(C#N)C=1C=CC=C(C1)OC=2C=CC(=CC2)Br)C=3C=CC(=CC3)OC(F)F,-8.17305
BUIAJUFAAQQFAY-UHFFFAOYSA-N,,COc1ccc(-c2sc(NC(N)=O)c(C#N)c2C)c(OC)c1,Cc1c(c(sc1c2ccc(cc2OC)OC)NC(=O)N)C#N,COC=1C=CC(=C(C1)OC)C=2SC(=C(C2C)C#N)NC(=O)N,-6.055517299999999
BUISZJCMXKZLGH-UHFFFAOYSA-N,,O=C(Cc1ccc(-c2ccccc2)cc1)Nc1ccc2cn[nH]c2c1,c1ccc(cc1)c2ccc(cc2)CC(=O)Nc3ccc4cn[nH]c4c3,O=C(CC=1C=CC(=CC1)C=2C=CC=CC2)NC=3C=CC=4C=NNC4C3,-6.585026700000001
BUJAGSGYPOAWEI-UHFFFAOYSA-N,tocainide,Cc1cccc(C)c1NC(=O)C(C)N,Cc1cccc(c1NC(=O)C(C)N)C,CC1=C(C(=CC=C1)C)NC(=O)C(C)N,-1.283888938
BUKLLCIUMZELOH-UHFFFAOYSA-N,"3,3',4-Trichlorodiphenyl ether",Clc1cccc(Oc2ccc(Cl)c(Cl)c2)c1,c1cc(cc(c1)Cl)Oc2ccc(c(c2)Cl)Cl,ClC=1C=CC=C(C1)OC=2C=CC(=C(C2)Cl)Cl,-5.437
BUMSKSOCVCNIDJ-UHFFFAOYSA-N,,CC(O)(C(=O)Nc1ccc(S(=O)(=O)N2CCCC(O)C2)cc1Cl)C(F)(F)F,CC(C(=O)Nc1ccc(cc1Cl)S(=O)(=O)N2CCCC(C2)O)(C(F)(F)F)O,CC(O)(C(=O)NC=1C=CC(=CC1Cl)S(=O)(=O)N2CCCC(C2)O)C(F)(F)F,-3.0043648
BUMZRIVMSGGVCR-UHFFFAOYSA-N,,CC(C(=O)Nc1cccc(OCCCC(=O)O)c1)c1ccc2nc(Nc3ccccc3)oc2c1,CC(c1ccc2c(c1)oc(n2)Nc3ccccc3)C(=O)Nc4cccc(c4)OCCCC(=O)O,CC(C(=O)NC=1C=CC=C(C1)OCCCC(=O)O)C=2C=CC=3N=C(OC3C2)NC=4C=CC=CC4,-3.60206
BUNFNRVLMKHKIT-UHFFFAOYSA-N,2-nitroacetanilide,CC(=O)Nc1ccccc1[N+](=O)[O-],CC(=O)Nc1ccccc1[N+](=O)[O-],O=[N+]([O-])C=1C(=CC=CC1)NC(=O)C,-1.91
BUPRSRBWDJVKGG-UHFFFAOYSA-N,"3,3',4,5'-TETRACHLORODIPHENYL  ETHER",Clc1cc(Cl)cc(Oc2ccc(Cl)c(Cl)c2)c1,c1cc(c(cc1Oc2cc(cc(c2)Cl)Cl)Cl)Cl,ClC1=CC(=CC(=C1)OC2=CC=C(C(=C2)Cl)Cl)Cl,-7.32
BUWFSDKWFYANIM-UHFFFAOYSA-N,,COc1cc2c(Nc3ccc(NC(=O)c4ccccc4)cc3)ncnc2cc1OCCNC(CO)CCSC,COc1cc2c(cc1OCCNC(CCSC)CO)ncnc2Nc3ccc(cc3)NC(=O)c4ccccc4,COC=1C=C2C(=NC=NC2=CC1OCCNC(CO)CCSC)NC=3C=CC(=CC3)NC(=O)C=4C=CC=CC4,-5.1674910999999994
BUXGNIRDPOLYKO-UHFFFAOYSA-N,"SODIUM 1-AMINO-4-({4-[(N-METHYL4-METHYLBENZENESULFONAMIDO)METHYL]PHENYL}AMINO)-9,10-DIOXO-9,10-DIHYDROANTHRACENE-2-SULFONATE",Cc1ccc(S(=O)(=O)N(C)Cc2ccc(Nc3cc(S(=O)(=O)O)c(N)c4c3C(=O)c3ccccc3C4=O)cc2)cc1,Cc1ccc(cc1)S(=O)(=O)N(C)Cc2ccc(cc2)Nc3cc(c(c4c3C(=O)c5ccccc5C4=O)N)S(=O)(=O)O,CN(CC=1C=CC(=CC1)NC=2C=C(C(=C3C2C(=O)C4=C(C=CC=C4)C3=O)N)S(=O)(=O)O)S(=O)(=O)C=5C=CC(=CC5)C,-1.942910996
BUYSBTOYLGJGAQ-UHFFFAOYSA-N,"4-[(E)-2-(2,3-dichlorophenyl)diazen-1-yl]-N-(5-{4-[(E)-2-(2,3-dichlorophenyl)diazen-1-yl]-3-hydroxynaphthalene-2-amido}naphthalen-1-yl)-3-hydroxynaphthalene-2-carboxamide",O=C(Nc1cccc2c(NC(=O)C3=Cc4ccccc4/C(=N\Nc4cccc(Cl)c4Cl)C3=O)cccc12)C1=Cc2ccccc2/C(=N/Nc2cccc(Cl)c2Cl)C1=O,c1ccc\2c(c1)C=C(C(=O)/C2=N\Nc3cccc(c3Cl)Cl)C(=O)Nc4cccc5c4cccc5NC(=O)C6=Cc7ccccc7/C(=N\Nc8cccc(c8Cl)Cl)/C6=O,ClC=1C=CC=C(C1Cl)N/N=C/2\C(=O)C(=CC3=C2C=CC=C3)C(=O)NC=4C=CC=C5C4C=CC=C5NC(=O)C6=CC=7C=CC=CC7/C(=N\NC=8C=CC=C(C8Cl)Cl)/C6=O,-9.227825624
BUZKILZDXOORCH-UHFFFAOYSA-N,"2,4-Pteridinediamine, 6,7-diethyl-",CCc1nc2nc(N)nc(N)c2nc1CC,CCc1c(nc2c(n1)c(nc(n2)N)N)CC,CCC=1N=C2N=C(N=C(C2=NC1CC)N)N,-3.2671
BVBSCSYCFCDVEU-UHFFFAOYSA-N,"methyl 4-[(2,5-dichlorophenyl)carbamoyl]-2-nitrobenzoate",COC(=O)c1ccc(C(=O)Nc2cc(Cl)ccc2Cl)cc1[N+](=O)[O-],COC(=O)c1ccc(cc1[N+](=O)[O-])C(=O)Nc2cc(ccc2Cl)Cl,COC(=O)C=1C=CC(=CC1[N+](=O)[O-])C(=O)NC=2C=C(C=CC2Cl)Cl,-5.965077322999999
BVIAOQMSVZHOJM-UHFFFAOYSA-N,"6-DIMETHYLAMINOPURINE;  N6,N6-DIMETHYLADENINE",CN(C)c1ncnc2[nH]cnc12,CN(C)c1c2c([nH]cn2)ncn1,CN(C)C1=NC=NC2=C1N=CN2,-1.3
BVJQHZJRYOJQIJ-UHFFFAOYSA-N,,CN(C)C(=O)C(Cc1ccccc1)NC(=O)c1cc2cc(F)ccc2[nH]1,CN(C)C(=O)C(Cc1ccccc1)NC(=O)c2cc3cc(ccc3[nH]2)F,CN(C)C(=O)C(CC=1C=CC=CC1)NC(=O)C2=CC=3C=C(C=CC3N2)F,-5.4436975
BVKZJIAGFQYTTL-UHFFFAOYSA-N,,O=C(NC(Cc1ccccc1)C(O)C(=O)N1CC(O)C(O)C1)c1cc2scc(Cl)c2[nH]1,c1ccc(cc1)CC(C(C(=O)N2CC(C(C2)O)O)O)NC(=O)c3cc4c([nH]3)c(cs4)Cl,OC(C(CC=1C=CC=CC1)NC(=O)C2=CC=3SC=C(C3N2)Cl)C(=O)N4CC(C(C4)O)O,-3.0222764
BVOKWOPQCAWSLV-UHFFFAOYSA-N,Androstanedione,CC12CCCC1C1CCC3CC(=O)C(=O)CC3(C)C1CC2,CC12CCCC1C3CCC4CC(=O)C(=O)CC4(C3CC2)C,CC12CCCC1C3CCC4CC(=O)C(=O)CC4(C3CC2)C,-3.76
BVQIOKJOQYMERO-UHFFFAOYSA-N,,COc1cc2c(NC(=O)Nc3c(F)cccc3F)ncnc2cc1OCC1CCN(C)CC1,CN1CCC(CC1)COc2cc3c(cc2OC)c(ncn3)NC(=O)Nc4c(cccc4F)F,COC=1C=C2C(=NC=NC2=CC1OCC3CCN(CC3)C)NC(=O)NC=4C(=CC=CC4F)F,-4.0587355
BVQVLAIMHVDZEL-UHFFFAOYSA-N,"1,2-Propanedione, 1-phenyl-",CC(=O)C(=O)c1ccccc1,CC(=O)C(=O)c1ccccc1,CC(=O)C(=O)C=1C=CC=CC1,-1.7559
BVRIUXYMUSKBHG-UHFFFAOYSA-N,C.I. DISPERSE BLACK 3,CN(C)c1ccc(/N=N/c2ccc(N)cc2)cc1,CN(C)c1ccc(cc1)/N=N/c2ccc(cc2)N,N(=N/C=1C=CC(=CC1)N(C)C)\C=2C=CC(=CC2)N,-4.593999999999999
BVVRZSKVUVJJAJ-UHFFFAOYSA-N,N-diethylsulfinamoyl-N-ethylethanamine,CCN(CC)[S+]([O-])N(CC)CC,CCN(CC)S(=O)N(CC)CC,S(=O)(N(CC)CC)N(CC)CC,-1.2819999999999998
BVWDUCDZOJZVIQ-UHFFFAOYSA-N,,COc1ccc(NS(=O)(=O)c2ccc(NC(=O)C(C)(O)C(F)(F)F)c(Cl)c2Cl)cc1,CC(C(=O)Nc1ccc(c(c1Cl)Cl)S(=O)(=O)Nc2ccc(cc2)OC)(C(F)(F)F)O,COC=1C=CC(=CC1)NS(=O)(=O)C=2C=CC(=C(C2Cl)Cl)NC(=O)C(C)(O)C(F)(F)F,-3.9586072999999997
BVXSZFCQFRYKKE-UHFFFAOYSA-N,,CC(C)Cn1c(=O)n(C)c(=O)c2cc(Cc3cccc4ccccc34)sc21,CC(C)Cn1c2c(cc(s2)Cc3cccc4c3cccc4)c(=O)n(c1=O)C,O=C1N(C(=O)N(C2=C1C=C(S2)CC=3C=CC=C4C3C=CC=C4)CC(C)C)C,-8.2163312
BWBGTUYNAMKJAI-UHFFFAOYSA-N,"4-tert-butyl-2-(5-tert-butyl-2-oxo-2,3-dihydro-1-benzofuran-3-yl)phenyl 3,5-di-tert-butyl-4-hydroxybenzoate",CC(C)(C)c1ccc(OC(=O)c2cc(C(C)(C)C)c(O)c(C(C)(C)C)c2)c(C2C(=O)Oc3ccc(C(C)(C)C)cc32)c1,CC(C)(C)c1ccc2c(c1)C(C(=O)O2)c3cc(ccc3OC(=O)c4cc(c(c(c4)C(C)(C)C)O)C(C)(C)C)C(C)(C)C,CC(C)(C)C=1C=CC2=C(C1)C(C(=O)O2)C=3C=C(C=CC3OC(=O)C=4C=C(C(=C(C4)C(C)(C)C)O)C(C)(C)C)C(C)(C)C,-8.848756309
BWCSCOGVOJAQRL-UHFFFAOYSA-N,"2-[(E)-2-(2-methoxyphenyl)diazen-1-yl]-3-oxo-N-(2-oxo-2,3-dihydro-1H-1,3-benzodiazol-5-yl)butanamide",COc1ccccc1/N=N/C(C(C)=O)C(=O)Nc1ccc2[nH]c(=O)[nH]c2c1,CC(=O)C(C(=O)Nc1ccc2c(c1)[nH]c(=O)[nH]2)/N=N/c3ccccc3OC,COC=1C=CC=CC1/N=N/C(C(=O)C)C(=O)NC=2C=CC=3NC(=O)NC3C2,-7.6307996629999995
BWCVPAQXXCLHGF-UHFFFAOYSA-N,,CC(CN1CCOCC1)C(=O)Nc1ccc2c(c1)-c1ccccc1S2(=O)=O,CC(CN1CCOCC1)C(=O)Nc2ccc3c(c2)-c4ccccc4S3(=O)=O,CC(CN1CCOCC1)C(=O)NC=2C=CC3=C(C2)C=4C=CC=CC4S3(=O)=O,-4.387216099999999
BWCXPHAQSYYKEB-UHFFFAOYSA-N,CRIMIDINE;  2-CHLORO-4-DIMETHYLAMINO-6-METHYLPYRIMIDINE,Cc1nc(Cl)ncc1N(C)C,Cc1c(cnc(n1)Cl)N(C)C,CN(C)C1=C(N=C(N=C1)Cl)C,-1.26
BWFQFOBDCOKGMJ-UHFFFAOYSA-N,,Cc1ccc(Cl)c(Nc2cc(Nc3cccc(OCC4CCCN(C)C4)c3)ncn2)c1,Cc1ccc(c(c1)Nc2cc(ncn2)Nc3cccc(c3)OCC4CCCN(C4)C)Cl,CN1CCCC(C1)COC=2C=CC=C(C2)NC=3C=C(N=CN3)NC=4C=C(C=CC4Cl)C,-4.2839967
BWGOKSCGEOSNPZ-UHFFFAOYSA-N,,CS(=O)(=O)c1ccc(NC(=O)N2CCN(c3ccc(Cl)cc3)CC2)cc1,CS(=O)(=O)c1ccc(cc1)NC(=O)N2CCN(CC2)c3ccc(cc3)Cl,CS(=O)(=O)C=1C=CC(=CC1)NC(=O)N2CCN(CC2)C=3C=CC(=CC3)Cl,-5.537602
BWHOZHOGCMHOBV-UHFFFAOYSA-N,4-Phenylbut-3-en-2-one,CC(=O)/C=C/c1ccccc1,CC(=O)/C=C/c1ccccc1,CC(=O)/C=C/C=1C=CC=CC1,-2.050985672
BWIMBSGWRWHEFG-UHFFFAOYSA-N,,COc1cc(CC(=O)NC(CC(C)C)C(=O)NC(CC(=O)O)c2ccc3c(c2)OCO3)cc2oc(N(C)c3ccccc3)nc12,CC(C)CC(C(=O)NC(CC(=O)O)c1ccc2c(c1)OCO2)NC(=O)Cc3cc4c(c(c3)OC)nc(o4)N(C)c5ccccc5,COC=1C=C(C=C2C1N=C(O2)N(C)C=3C=CC=CC3)CC(=O)NC(CC(C)C)C(=O)NC(CC(=O)O)C=4C=CC5=C(C4)OCO5,-3.1611509
BWLUMTFWVZZZND-UHFFFAOYSA-N,Dibenzylamine,c1ccc(CNCc2ccccc2)cc1,c1ccc(cc1)CNCc2ccccc2,C(NCC=1C=CC=CC1)C=2C=CC=CC2,-2.6878151189999997