inchikey,Name,SMILES_stand,SMILES,kekSmiles,logS
BHWVLZJTVIYLIV-UHFFFAOYSA-N,"3,4,4',5-tetrachlorobiphenyl",Clc1ccc(-c2cc(Cl)c(Cl)c(Cl)c2)cc1,c1cc(ccc1c2cc(c(c(c2)Cl)Cl)Cl)Cl,ClC1=CC=C(C=C1)C2=CC(=C(C(=C2)Cl)Cl)Cl,-7.96
BHWWNCSPDGXKFS-UHFFFAOYSA-N,,CC(=O)Nc1sc(-c2ccc(C(F)(F)F)cc2)cc1C#N,CC(=O)Nc1c(cc(s1)c2ccc(cc2)C(F)(F)F)C#N,CC(=O)NC=1SC(=CC1C#N)C=2C=CC(=CC2)C(F)(F)F,-6.0
BHXIWUJLHYHGSJ-UHFFFAOYSA-N,ETHYL 3-ETHOXYPROPANOATE,CCOCCC(=O)OCC,CCOCCC(=O)OCC,CCOCCC(=O)OCC,-0.4206
BHZHYOMSOVCNQX-UHFFFAOYSA-N,,COc1cc(CC(=O)Nc2nccc(OCCCC(=O)O)n2)cc2oc(Nc3ccccc3)nc12,COc1cc(cc2c1nc(o2)Nc3ccccc3)CC(=O)Nc4nccc(n4)OCCCC(=O)O,COC=1C=C(C=C2C1N=C(O2)NC=3C=CC=CC3)CC(=O)NC=4N=CC=C(N4)OCCCC(=O)O,-2.9208187999999997
BHZWBQPHPLFZSV-UHFFFAOYSA-N,,CCCCCCC(=O)Oc1c(Br)cc(C#N)cc1Br,CCCCCCC(=O)Oc1c(cc(cc1Br)C#N)Br,BrC1=CC(=CC(=C1OC(=O)CCCCCC)Br)C#N,-6.687
BIAHPDISIICPHX-UHFFFAOYSA-N,,CCN(Cc1cc(Br)ccc1OC1C=CCCC1)c1ccc(C(=O)O)cn1,CCN(Cc1cc(ccc1OC2CCCC=C2)Br)c3ccc(cn3)C(=O)O,CCN(CC=1C=C(C=CC1OC2CCCC=C2)Br)C=3C=CC(=CN3)C(=O)O,-4.6861328
BICNGDUWZRYKNG-UHFFFAOYSA-N,,CCn1c2ccccc2c2cc(NC(=O)N(C)C)ccc21,CCn1c2ccccc2c3c1ccc(c3)NC(=O)N(C)C,CCN1C=2C=CC=CC2C3=C1C=CC(=C3)NC(=O)N(C)C,-5.3467875
BIDNLKIUORFRQP-UHFFFAOYSA-N,fosinopril,CCC(=O)OC(OP(=O)(CCCCc1ccccc1)CC(=O)N1C[C@H](C2CCCCC2)C[C@H]1C(=O)O)C(C)C,CCC(=O)OC(C(C)C)OP(=O)(CCCCc1ccccc1)CC(=O)N2C[C@@H](C[C@H]2C(=O)O)C3CCCCC3,CCC(=O)OC(C(C)C)OP(=O)(CCCCC1=CC=CC=C1)CC(=O)N2C[C@@H](C[C@H]2C(=O)O)C3CCCCC3,-0.7510172159999999
BIGRRCHSUAXSEE-UHFFFAOYSA-N,"pteridine, 2-methyl-",Cc1ncc2nccnc2n1,Cc1ncc2c(n1)nccn2,CC=1N=CC=2N=CC=NC2N1,-0.12
BIHABWNLJVLMKA-UHFFFAOYSA-N,,CCc1cccc(CC)c1N1CC(C(=O)Nc2ccc(Cl)cc2)CC1=O,CCc1cccc(c1N2CC(CC2=O)C(=O)Nc3ccc(cc3)Cl)CC,CCC=1C=CC=C(C1N2CC(CC2=O)C(=O)NC=3C=CC(=CC3)Cl)CC,-5.522878700000001
BIIHZYONZSTJJO-UHFFFAOYSA-N,,Cc1ccc(NC(=O)c2ccnc(N3CCCCC3)c2)cc1NC(=O)c1cccc(CN2CCN(C)CC2)c1,Cc1ccc(cc1NC(=O)c2cccc(c2)CN3CCN(CC3)C)NC(=O)c4ccnc(c4)N5CCCCC5,CN1CCN(CC1)CC=2C=CC=C(C2)C(=O)NC=3C=C(C=CC3C)NC(=O)C=4C=CN=C(C4)N5CCCCC5,-2.9586072999999997
BIIODDGXWHYSSV-UHFFFAOYSA-N,,COc1cc2c(NC(=O)Nc3c(Cl)cccc3Cl)ncnc2cc1OCCc1ccncc1,COc1cc2c(cc1OCCc3ccncc3)ncnc2NC(=O)Nc4c(cccc4Cl)Cl,COC=1C=C2C(=NC=NC2=CC1OCCC=3C=CN=CC3)NC(=O)NC=4C(=CC=CC4Cl)Cl,-6.958607300000001
BIISIZOQPWZPPS-UHFFFAOYSA-N,[2-(tert-butylperoxy)propan-2-yl]benzene,CC(C)(C)OOC(C)(C)c1ccccc1,CC(C)(C)OOC(C)(C)c1ccccc1,CC(C)(C)OOC(C)(C)C=1C=CC=CC1,-4.290967075
BIIVYFLTOXDAOV-UHFFFAOYSA-N,flavopiridol,CN1CCC(c2c(O)cc(O)c3c(=O)cc(-c4ccccc4Cl)oc23)C(O)C1,CN1CCC(C(C1)O)c2c(cc(c3c2oc(cc3=O)c4ccccc4Cl)O)O,CN1CCC(C(C1)O)C2=C(C=C(C3=C2OC(=CC3=O)C4=C(C=CC=C4)Cl)O)O,-4.26
BIJOTHRFGRTFPM-UHFFFAOYSA-N,"Guanidine, N,N'-bis(4-methoxyphenyl)-",COc1ccc(NC(=N)Nc2ccc(OC)cc2)cc1,COc1ccc(cc1)NC(=N)Nc2ccc(cc2)OC,COC=1C=CC(=CC1)NC(=N)NC=2C=CC(=CC2)OC,-2.73475
BIKACRYIQSLICJ-UHFFFAOYSA-N,CLORANSULAM,CCOc1nc(F)cc2nc(S(=O)(=O)Nc3c(Cl)cccc3C(=O)OC)nn12,CCOc1nc(cc2n1nc(n2)S(=O)(=O)Nc3c(cccc3Cl)C(=O)OC)F,COC(=O)C1=CC=CC(=C1NS(=O)(=O)C2=NN3C(=NC(=CC3=N2)F)OCC)Cl,-4.4291
BILSWSFKZICLID-UHFFFAOYSA-N,,Cc1ccccc1NC(=O)Nc1ccc(Nc2nc(-c3cccc(OCCCC(=O)O)c3)cs2)cc1,Cc1ccccc1NC(=O)Nc2ccc(cc2)Nc3nc(cs3)c4cccc(c4)OCCCC(=O)O,CC=1C=CC=CC1NC(=O)NC=2C=CC(=CC2)NC3=NC(=CS3)C=4C=CC=C(C4)OCCCC(=O)O,-4.6197888
BIOQBKBTOAMMDG-UHFFFAOYSA-N,"1-naphthalenepropanoic acid, .beta.-amino-, (Ă±)",N[C@H](CC(=O)O)c1cccc2ccccc12,c1ccc2c(c1)cccc2[C@@H](CC(=O)O)N,N[C@H](CC(=O)O)C=1C=CC=C2C1C=CC=C2,-1.59
BIOVUACJQYBICE-UHFFFAOYSA-N,[2-[[4-[(2-chloro-4-nitrophenyl)azo]phenyl]ethylamino]ethyl](2-hydroxypropyl)dimethylammonium chloride,CCN(CC[N+](C)(C)CC(C)O)c1ccc(/N=N/c2ccc([N+](=O)[O-])cc2Cl)cc1,CCN(CC[N+](C)(C)CC(C)O)c1ccc(cc1)/N=N/c2ccc(cc2Cl)[N+](=O)[O-],CCN(CC[N+](C)(C)CC(C)O)C=1C=CC(=CC1)/N=N/C=2C=CC(=CC2Cl)[N+](=O)[O-],-0.5625
BIQOEDQVNIYWPQ-UHFFFAOYSA-N,"Acetamide-2-chloro-N-(2,6-dimethylphenyl)-N-((2-",Cc1cccc(C)c1N(COCC(C)C)C(=O)CCl,Cc1cccc(c1N(COCC(C)C)C(=O)CCl)C,N(C1=C(C=CC=C1C)C)(C(=O)CCl)COCC(C)C,-3.6821
BIRGPOACRQEIIE-UHFFFAOYSA-N,,CN(CCc1ccccn1)C(=O)Nc1ccc2c(c1)-c1ccccc1S2(=O)=O,CN(CCc1ccccn1)C(=O)Nc2ccc3c(c2)-c4ccccc4S3(=O)=O,CN(CCC=1C=CC=CN1)C(=O)NC=2C=CC3=C(C2)C=4C=CC=CC4S3(=O)=O,-4.2596373
BIRLFCZKFPGURM-UHFFFAOYSA-N,,Cc1n[nH]c(C)c2c(Cl)c([N+](=O)[O-])cc1-2,Cc1c-2c(c(cc2c(n[nH]1)C)[N+](=O)[O-])Cl,CC1=NNC(=C2C(=C(C=C12)[N+](=O)[O-])Cl)C,-4.8124793
BITAPBDLHJQAID-UHFFFAOYSA-N,2-[(2-hydroxyethyl)[(9E)-octadec-9-en-1-yl]amino]ethan-1-ol,CCCCCCCC/C=C/CCCCCCCCN(CCO)CCO,CCCCCCCC/C=C/CCCCCCCCN(CCO)CCO,CCCCCCCC/C=C/CCCCCCCCN(CCO)CCO,-4.780059145
BITOZQSWMFSNHR-UHFFFAOYSA-N,,CC(O)(C(=O)Nc1ccc(S(=O)(=O)NCCc2ccc(S(N)(=O)=O)cc2)cc1Cl)C(F)(F)F,CC(C(=O)Nc1ccc(cc1Cl)S(=O)(=O)NCCc2ccc(cc2)S(=O)(=O)N)(C(F)(F)F)O,CC(O)(C(=O)NC=1C=CC(=CC1Cl)S(=O)(=O)NCCC=2C=CC(=CC2)S(=O)(=O)N)C(F)(F)F,-2.8860566000000003
BITYRRPETOLEMY-UHFFFAOYSA-N,,COc1cc2c(Nc3ccc(NC(=O)c4cccc(Cl)c4)nc3)ncnc2cc1OCCCN1CCCCC1CCO,COc1cc2c(cc1OCCCN3CCCCC3CCO)ncnc2Nc4ccc(nc4)NC(=O)c5cccc(c5)Cl,COC=1C=C2C(=NC=NC2=CC1OCCCN3CCCCC3CCO)NC=4C=CC(=NC4)NC(=O)C=5C=CC=C(C5)Cl,-4.853872
BIXZHMJUSMUDOQ-UHFFFAOYSA-N,"dichloran;  2,6-dichloro-4-nitroaniline",Nc1c(Cl)cc([N+](=O)[O-])cc1Cl,c1c(cc(c(c1Cl)N)Cl)[N+](=O)[O-],[N+](=O)(C=1C=C(C(=C(C1)Cl)N)Cl)[O-],-4.47095
BIYFDLIZEYRQGU-UHFFFAOYSA-N,Acetaminophen,C1CCC(CN2CCNC2)CC1,C1CCC(CC1)CN2CCNC2,N1(CNCC1)CC2CCCCC2,-1.064
BIYKPXDURAAHNL-UHFFFAOYSA-N,,OC(CCc1cccnc1)COc1ccc(-c2cccc(F)c2)cc1,c1cc(cc(c1)F)c2ccc(cc2)OCC(CCc3cccnc3)O,FC=1C=C(C=CC1)C=2C=CC(=CC2)OCC(O)CCC=3C=NC=CC3,-6.3820093
BIYXGLPPMRDUNY-UHFFFAOYSA-N,,CCCCCOC(=O)Nc1ccccc1,CCCCCOC(=O)Nc1ccccc1,O(CCCCC)C(=O)NC1=CC=CC=C1,-3.9560000000000004
BIZOCMGRXPRLKP-UHFFFAOYSA-N,,Cc1ccc(NC(=O)c2ccnc(N3CCOCC3)c2)cc1NC(=O)c1cccc(CN2CCN(CCO)CC2)c1,Cc1ccc(cc1NC(=O)c2cccc(c2)CN3CCN(CC3)CCO)NC(=O)c4ccnc(c4)N5CCOCC5,CC=1C=CC(=CC1NC(=O)C=2C=CC=C(C2)CN3CCN(CC3)CCO)NC(=O)C=4C=CN=C(C4)N5CCOCC5,-2.8860566000000003
BJAXFBBUIQJCEF-UHFFFAOYSA-N,,COc1ccc(OC)c(C(COc2cccc(NC(=O)Cc3ccc4nc(Nc5ccccc5)oc4c3)c2)CC(=O)O)c1,COc1ccc(c(c1)C(CC(=O)O)COc2cccc(c2)NC(=O)Cc3ccc4c(c3)oc(n4)Nc5ccccc5)OC,COC=1C=CC(=C(C1)C(COC=2C=CC=C(C2)NC(=O)CC=3C=CC=4N=C(OC4C3)NC=5C=CC=CC5)CC(=O)O)OC,-4.3098039
BJBLYXLAIGJOSB-UHFFFAOYSA-N,,O=c1cc2c(nn1-c1ccc(Cl)cc1)-c1cccnc1CC2,c1cc-2c(nc1)CCc3c2nn(c(=O)c3)c4ccc(cc4)Cl,ClC=1C=CC(=CC1)N2C(=O)C=C3C(=N2)C4=C(N=CC=C4)CC3,-4.7651081
BJCASNMSKKVHRL-UHFFFAOYSA-N,,CC(C)Oc1cc(OCc2ccccc2)cc(C(=O)Nc2nc(C(=O)O)cs2)c1,CC(C)Oc1cc(cc(c1)OCc2ccccc2)C(=O)Nc3nc(cs3)C(=O)O,CC(C)OC=1C=C(C=C(C1)C(=O)NC2=NC(=CS2)C(=O)O)OCC=3C=CC=CC3,-3.5816987
BJDFGSWVNNJRSS-UHFFFAOYSA-N,CYPHENOTHRIN,CC(C)=CC1C(OC(=O)C(C#N)c2cccc(Oc3ccccc3)c2)C1(C)C,CC(=CC1C(C1(C)C)OC(=O)C(C#N)c2cccc(c2)Oc3ccccc3)C,C1=C(C=CC=C1C(C#N)C(=O)OC2C(C2C=C(C)C)(C)C)OC3=CC=CC=C3,-7.575
BJEHUIBLBDLXCQ-UHFFFAOYSA-N,Heptyl 3-chloro-4-hydroxybenzoate,CCCCCCCOC(=O)c1ccc(O)c(Cl)c1,CCCCCCCOC(=O)c1ccc(c(c1)Cl)O,CCCCCCCOC(=O)C1=CC(=C(C=C1)O)Cl,-4.229
BJELTSYBAHKXRW-UHFFFAOYSA-N,"tris(prop-2-en-1-yloxy)-1,3,5-triazine",C=CCOc1nc(OCC=C)nc(OCC=C)n1,C=CCOc1nc(nc(n1)OCC=C)OCC=C,C=CCOC=1N=C(N=C(N1)OCC=C)OCC=C,-2.8943803669999997
BJFOCMRBCBZFJT-UHFFFAOYSA-N,"2,3',4-Trichlorodiphenyl ether",Clc1cccc(Oc2ccc(Cl)cc2Cl)c1,c1cc(cc(c1)Cl)Oc2ccc(cc2Cl)Cl,C1(=C(C=C(C=C1)Cl)Cl)OC2=CC(=CC=C2)Cl,-5.441
BJHIKXHVCXFQLS-UHFFFAOYSA-N,L-Sorbose,O=C(CO)[C@@H](O)[C@H](O)[C@H](O)CO,C([C@H]([C@H]([C@@H](C(=O)CO)O)O)O)O,OC[C@@H](O)[C@@H](O)[C@H](O)C(=O)CO,0.32
BJHIZNMMXXDOOK-UHFFFAOYSA-N,,CCCSc1nc(NC2CC2c2ccccc2)c2nnn(C3CC(O)C(O)C3O)c2n1,CCCSc1nc(c2c(n1)n(nn2)C3CC(C(C3O)O)O)NC4CC4c5ccccc5,C=1(C=CC=CC1)C2CC2NC=3C=4N=NN(C4N=C(N3)SCCC)C5C(C(C(C5)O)O)O,-5.937533599999999
BJHSJEOZWUSKQR-UHFFFAOYSA-N,,COc1cc2c(Nc3cnc(C(=O)NCc4ccccc4)nc3)ncnc2cc1OCCCN1CCOCC1,COc1cc2c(cc1OCCCN3CCOCC3)ncnc2Nc4cnc(nc4)C(=O)NCc5ccccc5,COC=1C=C2C(=NC=NC2=CC1OCCCN3CCOCC3)NC=4C=NC(=NC4)C(=O)NCC=5C=CC=CC5,-5.8239087
BJIOGJUNALELMI-UHFFFAOYSA-N,Isoeugenol,C/C=C/c1ccc(O)c(OC)c1,C/C=C/c1ccc(c(c1)OC)O,O(C1=C(C=CC(=C1)/C=C/C)O)C,-2.3647374969999997
BJMXJPFRJCRCKG-UHFFFAOYSA-N,,CN(C)S(=O)(=O)n1c2ccccc2c2cc(NC(=O)CCn3ccnc3)ccc21,CN(C)S(=O)(=O)n1c2ccccc2c3c1ccc(c3)NC(=O)CCn4ccnc4,CN(C)S(=O)(=O)N1C=2C=CC=CC2C3=C1C=CC(=C3)NC(=O)CCN4C=CN=C4,-5.1870866
BJQHLKABXJIVAM-UHFFFAOYSA-N,Di(2-ethylhexyl) phthalate,CCCCC(CC)COC(=O)c1ccccc1C(=O)OCC(CC)CCCC,CCCCC(CC)COC(=O)c1ccccc1C(=O)OCC(CC)CCCC,O=C(OCC(CCCC)CC)C1=C(C=CC=C1)C(=O)OCC(CCCC)CC,-6.9639999999999995
BJQWBACJIAKDTJ-UHFFFAOYSA-N,Tetrabutylphosphonium bromide,CCCC[P+](CCCC)(CCCC)CCCC,CCCC[P+](CCCC)(CCCC)CCCC,CCCC[P+](CCCC)(CCCC)CCCC,0.414815485
BJRNKVDFDLYUGJ-UHFFFAOYSA-N,arbutin,OC[C@H]1O[C@@H](Oc2ccc(O)cc2)[C@H](O)[C@@H](O)[C@@H]1O,c1cc(ccc1O)O[C@H]2[C@@H]([C@H]([C@@H]([C@H](O2)CO)O)O)O,C1=CC(=CC=C1O)O[C@H]2[C@@H]([C@H]([C@@H]([C@H](O2)CO)O)O)O,-0.7359978840000001
BJVVMKUXKQHWJK-UHFFFAOYSA-N,talbutal;  5-allyl-5-sec-butylbarbituric  acid,C=CCC1(C(C)CC)C(=O)NC(=O)NC1=O,CCC(C)C1(C(=O)NC(=O)NC1=O)CC=C,O=C1NC(=O)NC(=O)C1(C(CC)C)CC=C,-2.02
BJXXCOMGRRCAGN-UHFFFAOYSA-N,3-hydroxy-2-(hydroxymethyl)-2-{[(9Z)-octadec-9-enoyloxy]methyl}propyl (9Z)-octadec-9-enoate,CCCCCCCC/C=C/CCCCCCCC(=O)OCC(CO)(CO)COC(=O)CCCCCCC/C=C/CCCCCCCC,CCCCCCCC/C=C/CCCCCCCC(=O)OCC(CO)(CO)COC(=O)CCCCCCC/C=C/CCCCCCCC,CCCCCCCC/C=C/CCCCCCCC(=O)OCC(CO)(CO)COC(=O)CCCCCCC/C=C/CCCCCCCC,-7.123943127
BJYPLSOQEPUFOR-UHFFFAOYSA-N,,COC1CN(C)C(=O)c2ccc(NC(C)=O)cc2OCC(C)N(Cc2cc(F)ccc2F)CC1C,CC1CN(C(COc2cc(ccc2C(=O)N(CC1OC)C)NC(=O)C)C)Cc3cc(ccc3F)F,COC1CN(C(=O)C2=CC=C(C=C2OCC(N(CC1C)CC3=CC(=CC=C3F)F)C)NC(=O)C)C,-4.0760000000000005
BJZIBODCUPQTSW-UHFFFAOYSA-N,"4,6-PTERIDINEDIONE",O=c1cnc2nc[nH]c(=O)c2[nH]1,c1c(=O)[nH]c2c(=O)[nH]cnc2n1,O=C1NC2=C(N=CNC2=O)N=C1,-2.96
BJZJPUSHTCPALE-UHFFFAOYSA-N,"Anthracene-1-sulfonic acid, 5-chloro-9,10-dioxo-",O=C1c2cccc(S(=O)(=O)O)c2C(=O)c2cccc(Cl)c21,c1cc2c(c(c1)S(=O)(=O)O)C(=O)c3cccc(c3C2=O)Cl,O=S(=O)(C=1C=CC=C2C1C(=O)C=3C=CC=C(C3C2=O)Cl)O,0.19
BKAQXYNWONVOAX-UHFFFAOYSA-N,,CCCC(=O)OC(C(Cl)(Cl)Cl)P(=O)(OC)OC,CCCC(=O)OC(C(Cl)(Cl)Cl)P(=O)(OC)OC,CCCC(=O)OC(C(Cl)(Cl)Cl)P(=O)(OC)OC,-3.05
BKCCAYLNRIRKDJ-UHFFFAOYSA-N,"2-Phenyl-4,5-dihydro-1H-imidazole",c1ccc(C2=NCCN2)cc1,c1ccc(cc1)C2=NCCN2,C1CN=C(N1)C=2C=CC=CC2,-1.1267590379999999
BKEFNWSKNHGAMA-UHFFFAOYSA-N,"5,5-diethyl-1-(hydroxymethyl)-1,3-diazinane-2,4,6-trione",CCC1(CC)C(=O)NC(=O)N(CO)C1=O,CCC1(C(=O)NC(=O)N(C1=O)CO)CC,CCC1(C(=O)NC(=O)N(C1=O)CO)CC,-3.9315
BKEJTAUUSZULEO-UHFFFAOYSA-N,ALLOPURIN-2-YL-METHYL  BUTYRATE;  2-(Butanoyloxymethyl)allopurinol,CCCC(=O)OCn1cc2c(=O)[nH]cnc2n1,CCCC(=O)OCn1cc2c(=O)[nH]cnc2n1,CCCC(=O)OCN1C=C2C(=O)NC=NC2=N1,-2.2
BKFXQVCYFHXIQS-UHFFFAOYSA-N,,COc1cc2c(Nc3ccc(Br)cc3F)ncnc2cc1OCCCN1CCC(O)CC1,COc1cc2c(cc1OCCCN3CCC(CC3)O)ncnc2Nc4ccc(cc4F)Br,COC=1C=C2C(=NC=NC2=CC1OCCCN3CCC(CC3)O)NC=4C=CC(=CC4F)Br,-3.3872161
BKFXSOCDAQACQM-UHFFFAOYSA-N,3-chlorophthalic acid,O=C(O)c1cccc(Cl)c1C(=O)O,c1cc(c(c(c1)Cl)C(=O)O)C(=O)O,OC(=O)C=1C=CC=C(C1C(=O)O)Cl,-0.976
BKHZQJRTFNFCTG-UHFFFAOYSA-N,Tris(2-methylphenyl) phosphite,Cc1ccccc1OP(Oc1ccccc1C)Oc1ccccc1C,Cc1ccccc1OP(Oc2ccccc2C)Oc3ccccc3C,CC=1C=CC=CC1OP(OC=2C=CC=CC2C)OC=3C=CC=CC3C,-7.77992153
BKJOEKIHJMWKDV-UHFFFAOYSA-N,,COc1cc2c(Nc3ccc(C(=O)Nc4ccc(F)cc4)s3)ncnc2cc1OCCCN1CCOCC1,COc1cc2c(cc1OCCCN3CCOCC3)ncnc2Nc4ccc(s4)C(=O)Nc5ccc(cc5)F,COC=1C=C2C(=NC=NC2=CC1OCCCN3CCOCC3)NC4=CC=C(S4)C(=O)NC=5C=CC(=CC5)F,-6.585026700000001
BKJRFNVXONDFHH-UHFFFAOYSA-N,calcium 3-hydroxy-4-[(E)-2-(1-sulfonatonaphthalen-2-yl)diazen-1-yl]naphthalene-2-carboxylate,O=C(O)C1=Cc2ccccc2/C(=N/Nc2ccc3ccccc3c2S(=O)(=O)O)C1=O,c1ccc2c(c1)ccc(c2S(=O)(=O)O)N/N=C\3/c4ccccc4C=C(C3=O)C(=O)O,OC(=O)C1=CC=2C=CC=CC2/C(=N/NC=3C=CC=4C=CC=CC4C3S(=O)(=O)O)/C1=O,-6.2791977029999995
BKKWPPMEXIXECW-UHFFFAOYSA-N,"tris(2-[bis(2-hydroxyethyl)amino]ethan-1-ol); 6-({bis[(5-carboxypentyl)amino]-1,3,5-triazin-2-yl}amino)hexanoic acid",O=C(O)CCCCCNc1nc(NCCCCCC(=O)O)nc(NCCCCCC(=O)O)n1,C(CCC(=O)O)CCNc1nc(nc(n1)NCCCCCC(=O)O)NCCCCCC(=O)O,OC(=O)CCCCCNC=1N=C(N=C(N1)NCCCCCC(=O)O)NCCCCCC(=O)O,-2.5423613080000003
BKMSYPMLIUVJMP-UHFFFAOYSA-N,,CCn1c(=O)sn(-c2ccc(Cl)cc2)c1=O,CCn1c(=O)n(sc1=O)c2ccc(cc2)Cl,CCN1C(=O)SN(C1=O)C=2C=CC(=CC2)Cl,-4.2218487
BKNHUCSOLNCISW-UHFFFAOYSA-N,,O=C(O)c1cc2cc(O)ccc2n1Cc1cc(Cl)cc(Cl)c1,c1cc2c(cc1O)cc(n2Cc3cc(cc(c3)Cl)Cl)C(=O)O,OC(=O)C1=CC=2C=C(C=CC2N1CC=3C=C(C=C(C3)Cl)Cl)O,-2.2839967
BKRGVLQUQGGVSM-UHFFFAOYSA-N,,CCN(CC)C(=O)NC1C=C2c3cccc4[nH]cc(c34)CC2N(C)C1,CCN(CC)C(=O)NC1CN(C2Cc3c[nH]c4c3c(ccc4)C2=C1)C,O=C(NC1CN(C2C(=C1)C3=C4C(=CNC4=CC=C3)C2)C)N(CC)CC,0.2322
BKSXHJHDYQYHCA-UHFFFAOYSA-N,,COc1cc2c(Nc3ccc(C(=N)Nc4ccccc4)cc3)ncnc2cc1OCCCN1CCOCC1,COc1cc2c(cc1OCCCN3CCOCC3)ncnc2Nc4ccc(cc4)C(=N)Nc5ccccc5,COC=1C=C2C(=NC=NC2=CC1OCCCN3CCOCC3)NC=4C=CC(=CC4)C(=N)NC=5C=CC=CC5,-4.2139587999999994
BKTRJOWBKHNAJL-UHFFFAOYSA-N,,O=C(O)c1ccc(/C=C/c2cc(OCc3ccccc3Cl)cc(OCc3ccccc3Cl)c2)nc1,c1ccc(c(c1)COc2cc(cc(c2)OCc3ccccc3Cl)/C=C/c4ccc(cn4)C(=O)O)Cl,OC(=O)C=1C=CC(=NC1)/C=C/C=2C=C(C=C(C2)OCC=3C=CC=CC3Cl)OCC=4C=CC=CC4Cl,-5.4436975
BKXGGJOEQJXWPA-UHFFFAOYSA-N,,CCn1c2c(c3ccccc31)CC(NC(=O)C1CCN(C(C)=O)CC1)CC2,CCn1c2ccccc2c3c1CCC(C3)NC(=O)C4CCN(CC4)C(=O)C,CCN1C2=C(C3=C1C=CC=C3)CC(CC2)NC(=O)C4CCN(CC4)C(=O)C,-3.6382722000000003
BKXGMMLAXFAIGQ-UHFFFAOYSA-N,7-THEOPHYLLINYLMETHYL  ACETATE;  7-(Acetoxymethyl)theophylline,CC(=O)OCn1cnc2c1c(=O)n(C)c(=O)n2C,CC(=O)OCn1cnc2c1c(=O)n(c(=O)n2C)C,CN1C(=O)N(C2=C(C1=O)N(C=N2)COC(=O)C)C,-1.83
BKYVRTSJCQCZFL-UHFFFAOYSA-N,,O=C(O)CCCOc1cc(NC(=O)Cc2ccc3nc(Nc4ccccc4)oc3c2)ccc1OCCCN1CCOCC1,c1ccc(cc1)Nc2nc3ccc(cc3o2)CC(=O)Nc4ccc(c(c4)OCCCC(=O)O)OCCCN5CCOCC5,OC(=O)CCCOC=1C=C(C=CC1OCCCN2CCOCC2)NC(=O)CC=3C=CC=4N=C(OC4C3)NC=5C=CC=CC5,-4.075720700000001
BKYWPNROPGQIFZ-UHFFFAOYSA-N,"2,4-DIMETHYLBENZOIC  ACID",Cc1ccc(C(=O)O)c(C)c1,Cc1ccc(c(c1)C)C(=O)O,CC1=CC(=C(C=C1)C(=O)O)C,-2.97
BLAGQRKHUNUTKQ-UHFFFAOYSA-M,,COCC(CO)Nc1nc(SCc2cccc(F)c2F)nc2[n-]c(=O)sc12,COCC(CO)Nc1c2c([n-]c(=O)s2)nc(n1)SCc3cccc(c3F)F,C(OC)C(CO)NC=1N=C(N=C2C1SC(=O)[N-]2)SCC=3C=CC=C(C3F)F,-5.6386940999999995
BLAYIQLVUNIICD-UHFFFAOYSA-N,"2,3,5,6-TETRACHLOROBIPHENYL",Clc1cc(Cl)c(Cl)c(-c2ccccc2)c1Cl,c1ccc(cc1)c2c(c(cc(c2Cl)Cl)Cl)Cl,ClC=1C=C(C(=C(C1Cl)C=2C=CC=CC2)Cl)Cl,-7.25
BLBAGDPQZLVOCY-UHFFFAOYSA-N,,CN1CCCC(COc2ccc3c(NC(=O)Nc4c(Cl)cc(Cl)cc4Cl)ncnc3c2)C1,CN1CCCC(C1)COc2ccc3c(c2)ncnc3NC(=O)Nc4c(cc(cc4Cl)Cl)Cl,CN1CCCC(C1)COC=2C=CC=3C(=NC=NC3C2)NC(=O)NC=4C(=CC(=CC4Cl)Cl)Cl,-5.5086383
BLDMSNNZSWYEKM-UHFFFAOYSA-N,,N#Cc1cnc(Nc2ccc(S(=O)(=O)NCC3CCCO3)cc2)nc1N,c1cc(ccc1Nc2ncc(c(n2)N)C#N)S(=O)(=O)NCC3CCCO3,NC=1N=C(N=CC1C#N)NC=2C=CC(=CC2)S(=O)(=O)NCC3CCCO3,-4.721246400000001
BLEXKHFCGBOLFZ-UHFFFAOYSA-N,"Benzenesulfonamide, 4-amino-N-2-benzothiazolyl-",Nc1ccc(S(=O)(=O)Nc2nc3ccccc3s2)cc1,c1ccc2c(c1)nc(s2)NS(=O)(=O)c3ccc(cc3)N,S(=O)(=O)(NC1=NC=2C=CC=CC2S1)C3=CC=C(C=C3)N,-5.613164
BLFAAYGECSULMU-UHFFFAOYSA-N,,COc1cc2ncnc(Nc3ccc(F)c(Cl)c3)c2cc1OCCN1CCCC1,COc1cc2c(cc1OCCN3CCCC3)c(ncn2)Nc4ccc(c(c4)Cl)F,COC=1C=C2N=CN=C(C2=CC1OCCN3CCCC3)NC=4C=CC(=C(C4)Cl)F,-4.386158200000001
BLFLLBZGZJTVJG-UHFFFAOYSA-N,"p-aminobenzoic acid, ethyl ester",CCOC(=O)c1ccc(N)cc1,CCOC(=O)c1ccc(cc1)N,O=C(OCC)C1=CC=C(C=C1)N,-2.195
BLFSPWQPNNXCRD-UHFFFAOYSA-N,,COc1ccc(NC(=O)c2ccc(-c3ccccc3)cc2)cc1OCCN(C(C)C)C(C)C,CC(C)N(CCOc1cc(ccc1OC)NC(=O)c2ccc(cc2)c3ccccc3)C(C)C,COC=1C=CC(=CC1OCCN(C(C)C)C(C)C)NC(=O)C=2C=CC(=CC2)C=3C=CC=CC3,-5.8239087
BLGRLHZRORHVAW-UHFFFAOYSA-N,,COc1cc2c(Oc3ccc4[nH]c(C)cc4c3F)cnnc2cc1OCC(O)CN1CCCCC1,Cc1cc2c([nH]1)ccc(c2F)Oc3cnnc4c3cc(c(c4)OCC(CN5CCCCC5)O)OC,COC=1C=C2C(=CN=NC2=CC1OCC(O)CN3CCCCC3)OC=4C=CC=5NC(=CC5C4F)C,-5.080921900000001
BLGXFZZNTVWLAY-UHFFFAOYSA-N,yohimbine hydrochloride,COC(=O)[C@H]1[C@@H](O)CC[C@H]2CN3CCc4c([nH]c5ccccc45)[C@@H]3C[C@@H]21,COC(=O)[C@H]1[C@H](CC[C@@H]2[C@@H]1C[C@H]3c4c(c5ccccc5[nH]4)CCN3C2)O,COC(=O)[C@H]1[C@H](CC[C@@H]2[C@@H]1C[C@H]3C4=C(C5=CC=CC=C5N4)CCN3C2)O,-1.59206567
BLHHQMPYRNPUIV-UHFFFAOYSA-N,"Pentanedioic acid, 2,2-diphenyl-",O=C(O)CCC(C(=O)O)(c1ccccc1)c1ccccc1,c1ccc(cc1)C(CCC(=O)O)(c2ccccc2)C(=O)O,O=C(C(C=1C=CC=CC1)(C=2C=CC=CC2)CCC(=O)O)O,0.546
BLIXTLBIJLQBFR-UHFFFAOYSA-N,,CN1CCN(C(=O)CCC(=O)Oc2ccc(Sc3ccc4[nH]c(N)c(C#N)c4c3)cc2)CC1,CN1CCN(CC1)C(=O)CCC(=O)Oc2ccc(cc2)Sc3ccc4c(c3)c(c([nH]4)N)C#N,CN1CCN(CC1)C(=O)CCC(=O)OC=2C=CC(=CC2)SC=3C=CC=4NC(=C(C4C3)C#N)N,-4.3391345
BLJHLAMDSASELF-UHFFFAOYSA-N,,COc1cccc(Oc2ccc(Nc3c(C#N)cnc4cc(OCCCN5CCOCC5)c(OC)cc34)cc2)c1,COc1cccc(c1)Oc2ccc(cc2)Nc3c4cc(c(cc4ncc3C#N)OCCCN5CCOCC5)OC,COC=1C=CC=C(C1)OC=2C=CC(=CC2)NC=3C(=CN=C4C3C=C(C(=C4)OCCCN5CCOCC5)OC)C#N,-6.853872
BLJIZWQCQUDUGF-UHFFFAOYSA-N,,CC(=O)n1c2ccccc2c2cc(NC(=O)CCc3ccncc3)ccc21,CC(=O)n1c2ccccc2c3c1ccc(c3)NC(=O)CCc4ccncc4,CC(=O)N1C=2C=CC=CC2C3=C1C=CC(=C3)NC(=O)CCC=4C=CN=CC4,-5.6777807000000005
BLJRIMJGRPQVNF-UHFFFAOYSA-N,timolol,CC(C)(C)NC[C@H](O)COc1nsnc1N1CCOCC1,CC(C)(C)NC[C@@H](COc1c(nsn1)N2CCOCC2)O,CC(C)(C)NC[C@@H](COC1=NSN=C1N2CCOCC2)O,-2.0625133630000003
BLKGEMVDVUCDKT-UHFFFAOYSA-N,,COc1cc2c(Nc3ccc(NC(=O)c4ccccc4)cc3)ncnc2cc1OCCNCCN1CCCC1,COc1cc2c(cc1OCCNCCN3CCCC3)ncnc2Nc4ccc(cc4)NC(=O)c5ccccc5,COC=1C=C2C(=NC=NC2=CC1OCCNCCN3CCCC3)NC=4C=CC(=CC4)NC(=O)C=5C=CC=CC5,-2.79588
BLNTZYJMIHEYCD-UHFFFAOYSA-N,,C#CCN(Cc1ccc2nc(C)nc(NCCN3CCOCC3)c2c1)c1ccc(C(=O)NCc2cccnc2)cc1,Cc1nc2ccc(cc2c(n1)NCCN3CCOCC3)CN(CC#C)c4ccc(cc4)C(=O)NCc5cccnc5,CC=1N=C(C=2C=C(C=CC2N1)CN(CC#C)C=3C=CC(=CC3)C(=O)NCC=4C=CC=NC4)NCCN5CCOCC5,-5.026872099999999
BLOXMGXSDAAJGX-UHFFFAOYSA-N,(3Z)-Hex-3-en-1-yl methyl carbonate,CC/C=C/CCOC(=O)OC,CC/C=C/CCOC(=O)OC,CC/C=C/CCOC(=O)OC,-3.0699153239999997
BLSPWFIREKMTOA-UHFFFAOYSA-N,,Cc1ccc(NC(=O)c2ccnc(N3CCOCC3)c2)cc1-n1cnc2ccc(N3CCN(C)CC3)cc2c1=O,Cc1ccc(cc1n2cnc3ccc(cc3c2=O)N4CCN(CC4)C)NC(=O)c5ccnc(c5)N6CCOCC6,CN1CCN(CC1)C=2C=CC=3N=CN(C(=O)C3C2)C=4C=C(C=CC4C)NC(=O)C=5C=CN=C(C5)N6CCOCC6,-3.6705652
BLSVCHHBHKGCSQ-UHFFFAOYSA-N,"Urea, (2-methylphenyl)-",Cc1ccccc1NC(N)=O,Cc1ccccc1NC(=O)N,C(=O)(NC=1C(=CC=CC1)C)N,-1.818
BLUAFEHZUWYNDE-UHFFFAOYSA-N,artemisinin,C[C@@H]1CC[C@H]2[C@@H](C)C(=O)O[C@@H]3O[C@@]4(C)CC[C@@H]1[C@]32OO4,C[C@@H]1CC[C@H]2[C@H](C(=O)O[C@H]3[C@@]24[C@H]1CC[C@](O3)(OO4)C)C,C[C@@H]1CC[C@H]2[C@H](C(=O)O[C@H]3[C@@]24[C@H]1CC[C@](O3)(OO4)C)C,-3.7889443430000003
BLVBWZQNYXCVJU-UHFFFAOYSA-N,,Cn1cnc(S(=O)(=O)Nc2ccc(NC(=O)C(C)(O)C(F)(F)F)c(Cl)c2)c1,CC(C(=O)Nc1ccc(cc1Cl)NS(=O)(=O)c2cn(cn2)C)(C(F)(F)F)O,CN1C=NC(=C1)S(=O)(=O)NC=2C=CC(=C(C2)Cl)NC(=O)C(C)(O)C(F)(F)F,-3.1739252000000002
BLVIXFHKUYWFBS-UHFFFAOYSA-N,,COc1cccc(Oc2ccc(Nc3c(C#N)cnc4cc(OCCCN5CC(C)OC(C)C5)c(OC)cc34)cn2)c1,CC1CN(CC(O1)C)CCCOc2cc3c(cc2OC)c(c(cn3)C#N)Nc4ccc(nc4)Oc5cccc(c5)OC,COC=1C=CC=C(C1)OC=2C=CC(=CN2)NC=3C(=CN=C4C3C=C(C(=C4)OCCCN5CC(OC(C5)C)C)OC)C#N,-5.721246400000001
BLVTUXCPBJQIGY-UHFFFAOYSA-N,,COc1cc2ncnc(Nc3cc(NC(=O)c4cccc(N5CCOCC5)c4)ccc3C)c2cc1OC,Cc1ccc(cc1Nc2c3cc(c(cc3ncn2)OC)OC)NC(=O)c4cccc(c4)N5CCOCC5,COC=1C=C2N=CN=C(C2=CC1OC)NC=3C=C(C=CC3C)NC(=O)C=4C=CC=C(C4)N5CCOCC5,-4.8389317
BLXQXFGBCPDPEM-UHFFFAOYSA-N,,O=C(NS(=O)(=O)c1ccc(-c2cc3ccccc3o2)cc1)c1ccc(Cl)c([N+](=O)[O-])c1,c1ccc2c(c1)cc(o2)c3ccc(cc3)S(=O)(=O)NC(=O)c4ccc(c(c4)[N+](=O)[O-])Cl,ClC=1C=CC(=CC1[N+](=O)[O-])C(=O)NS(=O)(=O)C=2C=CC(=CC2)C3=CC=4C=CC=CC4O3,-3.9208187999999993
BLXVTZPGEOGTGG-UHFFFAOYSA-N,"Nonylphenol, ethoxylated",CCCCCCCCCc1ccc(OCCOCCO)cc1,CCCCCCCCCc1ccc(cc1)OCCOCCO,CCCCCCCCCC=1C=CC(=CC1)OCCOCCO,-0.30450512
BLXXJMDCKKHMKV-UHFFFAOYSA-N,nabumetone,COc1ccc2cc(CCC(C)=O)ccc2c1,CC(=O)CCc1ccc2cc(ccc2c1)OC,COC1=CC=C2C=C(C=CC2=C1)CCC(=O)C,-1.46
BLZWZFVQAWMEFZ-UHFFFAOYSA-N,,COC(=O)CCCOc1cc(NC(=O)Cc2cc(OC)c3nc(Nc4ccccc4)oc3c2)ccc1OCCN1CCCCC1,COc1cc(cc2c1nc(o2)Nc3ccccc3)CC(=O)Nc4ccc(c(c4)OCCCC(=O)OC)OCCN5CCCCC5,COC(=O)CCCOC=1C=C(C=CC1OCCN2CCCCC2)NC(=O)CC=3C=C(C=4N=C(OC4C3)NC=5C=CC=CC5)OC,-5.102372900000001
BMCFJAXSYZTDOL-UHFFFAOYSA-N,,Cc1nnc(C)c2c1=CC([N+](=O)[O-])C=2,Cc1c2=CC(C=c2c(nn1)C)[N+](=O)[O-],CC1=NN=C(C2=CC(C=C12)[N+](=O)[O-])C,-4.0
BMEKKWWFQMYXPU-UHFFFAOYSA-N,,COc1cc2c(Nc3ccc(Cl)cc3F)ncnc2cc1OC/C=C/CN1CCCC1,COc1cc2c(cc1OC/C=C/CN3CCCC3)ncnc2Nc4ccc(cc4F)Cl,COC=1C=C2C(=NC=NC2=CC1OC/C=C/CN3CCCC3)NC=4C=CC(=CC4F)Cl,-3.1174755000000003
BMEMSZNEGPFYMC-UHFFFAOYSA-N,"Cyclohexanecarboxamide, 4-methyl-, trans-",CC1CCC(C(N)=O)CC1,CC1CCC(CC1)C(=O)N,C(=O)(C1CCC(CC1)C)N,-2.1719999999999997
BMFYCFSWWDXEPB-UHFFFAOYSA-N,Cyclohexyl(phenyl)methanone,O=C(c1ccccc1)C1CCCCC1,c1ccc(cc1)C(=O)C2CCCCC2,O=C(C1CCCCC1)C=2C=CC=CC2,-4.0148548680000005