inchikey,Name,SMILES_stand,SMILES,kekSmiles,logS
CZPVPCVGEHLYFX-UHFFFAOYSA-N,,N#Cc1ccccc1NC(=O)c1cc2ccccc2cc1O,c1ccc2cc(c(cc2c1)C(=O)Nc3ccccc3C#N)O,OC=1C=C2C=CC=CC2=CC1C(=O)NC=3C=CC=CC3C#N,-5.90309
CZQWVEQNWWGXMC-UHFFFAOYSA-N,,COc1cc2c(Nc3ccc(NC(=O)c4ccccc4)cc3)ncnc2cc1OCCNC1CCC1,COc1cc2c(cc1OCCNC3CCC3)ncnc2Nc4ccc(cc4)NC(=O)c5ccccc5,COC=1C=C2C(=NC=NC2=CC1OCCNC3CCC3)NC=4C=CC(=CC4)NC(=O)C=5C=CC=CC5,-3.9586072999999997
CZSXBBWOROMVEW-UHFFFAOYSA-N,"2H,4H,4aH,5H,9bH-indeno[1,2-d][1,3]dioxine",c1ccc2c(c1)CC1COCOC21,c1ccc2c(c1)CC3C2OCOC3,C1OCC2CC=3C=CC=CC3C2O1,-1.656046637
CZTPMDLWMYKCCU-UHFFFAOYSA-N,"Succinic acid, 2-allyl-3-methyl-, erythro-",C=CCC(C(=O)O)C(C)C(=O)O,CC(C(CC=C)C(=O)O)C(=O)O,C(=O)(C(C(C(=O)O)CC=C)C)O,-1.06
CZTQZXZIADLWOZ-UHFFFAOYSA-O,Cephaloridine,O=C(Cc1cccs1)N[C@@H]1C(=O)N2C(C(=O)O)=C(C[n+]3ccccc3)CS[C@H]12,c1cc[n+](cc1)CC2=C(N3[C@@H]([C@@H](C3=O)NC(=O)Cc4cccs4)SC2)C(=O)O,C1C(=C(N2[C@H](S1)[C@@H](C2=O)NC(=O)CC3=CC=CS3)C(=O)O)C[N+]4=CC=CC=C4,0.00123471
CZVNTPYUEKSONV-UHFFFAOYSA-N,,CC(C)Cc1ccc2sc(NC(N)=O)c(C(N)=O)c2n1,CC(C)Cc1ccc2c(n1)c(c(s2)NC(=O)N)C(=O)N,CC(C)CC=1C=CC=2SC(=C(C2N1)C(=O)N)NC(=O)N,-4.30103
CZXGXYBOQYQXQD-UHFFFAOYSA-N,METHYL BENZENESULFONATE,COS(=O)(=O)c1ccccc1,COS(=O)(=O)c1ccccc1,S(=O)(=O)(C1=CC=CC=C1)OC,-1.74195
CZZKSRUQQFSGQD-UHFFFAOYSA-N,,COc1cc2c(Nc3ccc(NC(=O)c4cccc(Cl)c4)nc3)ncnc2cc1OCCCN(CCO)C(C)C,CC(C)N(CCCOc1cc2c(cc1OC)c(ncn2)Nc3ccc(nc3)NC(=O)c4cccc(c4)Cl)CCO,COC=1C=C2C(=NC=NC2=CC1OCCCN(CCO)C(C)C)NC=3C=CC(=NC3)NC(=O)C=4C=CC=C(C4)Cl,-4.5199931
CZZYITDELCSZES-UHFFFAOYSA-N,Diphenylmethane,c1ccc(Cc2ccccc2)cc1,c1ccc(cc1)Cc2ccccc2,C=1C=CC=CC1CC=2C=CC=CC2,-4.08
DAAQPMSPBHQGQA-UHFFFAOYSA-N,pteridine-2-thione,Sc1ncc2nccnc2n1,c1cnc2c(n1)cnc(n2)S,S=C1NC2=C(C=N1)N=CC=N2,-2.68
DABQKEQFLJIRHU-UHFFFAOYSA-N,"3,3,5-Trimethylcyclohexyl 2-methylprop-2-enoate",C=C(C)C(=O)OC1CC(C)CC(C)(C)C1,CC1CC(CC(C1)(C)C)OC(=O)C(=C)C,CC1CC(CC(C1)(C)C)OC(=O)C(=C)C,-4.598799255
DAGCKBUHRHEBDX-UHFFFAOYSA-N,"Benzenesulfonamide, 4-amino-N-(3-ethoxy-2-pyridi",CCOc1cccnc1NS(=O)(=O)c1ccc(N)cc1,CCOc1cccnc1NS(=O)(=O)c2ccc(cc2)N,S(=O)(=O)(NC=1N=CC=CC1OCC)C2=CC=C(C=C2)N,-3.096
DAHLUZDNJJOKGS-UHFFFAOYSA-N,"2,4,6-Cycloheptatrien-1-one, 5-bromo-2-hydroxy-",O=c1ccc(Br)ccc1O,c1cc(c(=O)ccc1Br)O,OC1=CC=C(C=CC1=O)Br,-3.56295
DAHNEQAICFEUKA-UHFFFAOYSA-N,,CC1CN(C(C)CO)C(=O)CCCn2nncc2COC1CN(C)Cc1ccc(C(=O)Nc2ccccc2N)cc1,CC1CN(C(=O)CCCn2c(cnn2)COC1CN(C)Cc3ccc(cc3)C(=O)Nc4ccccc4N)C(C)CO,CC(CO)N1CC(C(OCC2=CN=NN2CCCC1=O)CN(C)CC3=CC=C(C=C3)C(=O)NC4=CC=CC=C4N)C,-4.0
DAIMSMGGQIIQPI-UHFFFAOYSA-N,"3,4,5-TRICHLOROPHENOXYACETIC ACID",O=C(O)COc1cc(Cl)c(Cl)c(Cl)c1,c1c(cc(c(c1Cl)Cl)Cl)OCC(=O)O,OC(=O)COC1=CC(=C(C(=C1)Cl)Cl)Cl,-2.94
DAJXCRHUQRIKFQ-UHFFFAOYSA-N,,O=C(NC(Cc1ccccc1)C(=O)N1CCSCC1)c1cc2cc(Cl)sc2[nH]1,c1ccc(cc1)CC(C(=O)N2CCSCC2)NC(=O)c3cc4cc(sc4[nH]3)Cl,ClC1=CC=2C=C(NC2S1)C(=O)NC(CC=3C=CC=CC3)C(=O)N4CCSCC4,-6.2924298
DAJXGDMBDLXAAP-UHFFFAOYSA-N,phenylmethyl N-[2-[(2-amino-2-oxoethyl)amino]-2-oxoethyl]carbamate,NC(=O)CNC(=O)CNC(=O)OCc1ccccc1,c1ccc(cc1)COC(=O)NCC(=O)NCC(=O)N,NC(=O)CNC(=O)CNC(=O)OCC1=CC=CC=C1,-2.351
DAKWPKUUDNSNPN-UHFFFAOYSA-N,"2,2-bis[(prop-2-enoyloxy)methyl]butyl prop-2-enoate",C=CC(=O)OCC(CC)(COC(=O)C=C)COC(=O)C=C,CCC(COC(=O)C=C)(COC(=O)C=C)COC(=O)C=C,CCC(COC(=O)C=C)(COC(=O)C=C)COC(=O)C=C,-2.772894748
DAQBOXIXALYCPJ-UHFFFAOYSA-N,"2-Butenamide, N-(4-hydroxyphenyl)-",C/C=C/C(=O)Nc1ccc(O)cc1,C/C=C/C(=O)Nc1ccc(cc1)O,O=C(/C=C/C)NC1=CC=C(C=C1)O,-2.6460000000000004
DASYMCLQENWCJG-UHFFFAOYSA-N,cefetamet pivoxil,CO/N=C(\C(=O)N[C@@H]1C(=O)N2C(C(=O)OCOC(=O)C(C)(C)C)=C(C)CS[C@H]12)c1csc(N)n1,CC1=C(N2[C@@H]([C@@H](C2=O)NC(=O)/C(=N\OC)/c3csc(n3)N)SC1)C(=O)OCOC(=O)C(C)(C)C,CC1=C(N2[C@@H]([C@@H](C2=O)NC(=O)/C(=N\OC)/C3=CSC(=N3)N)SC1)C(=O)OCOC(=O)C(C)(C)C,-3.504785086
DATNOZAQAIEORG-UHFFFAOYSA-N,,c1ccc(N2CC3COc4ccccc4C3=N2)cc1,c1ccc(cc1)N2CC3COc4ccccc4C3=N2,C=1C=CC=CC1N2CC3COC=4C(=CC=CC4)C3=N2,-6.7910076
DAUAQNGYDSHRET-UHFFFAOYSA-N,"3,4-DIMETHOXYBENZOIC ACID",COc1ccc(C(=O)O)cc1OC,COc1ccc(cc1OC)C(=O)O,C(=O)(C=1C=C(C(=CC1)OC)OC)O,-2.562
DAUCLDROLUGJDY-UHFFFAOYSA-N,"Benzamide, N-[2-(1H-imidazol-4-yl)ethyl]-",O=C(NCCc1c[nH]cn1)c1ccccc1,c1ccc(cc1)C(=O)NCCc2c[nH]cn2,O=C(NCCC1=CNC=N1)C=2C=CC=CC2,-0.634
DAUFGBIKKGOPJA-UHFFFAOYSA-N,"SULFATROXAZOLE;  4,5-DIMETHYL-3-SULFAISOXAZOLE",Cc1onc(NS(=O)(=O)c2ccc(N)cc2)c1C,Cc1c(onc1NS(=O)(=O)c2ccc(cc2)N)C,CC1=C(C(=NO1)NS(=O)(=O)C2=CC=C(C=C2)N)C,-2.19
DAWDTDPJINNEJM-UHFFFAOYSA-N,"2,4a,5,8a-tetramethyl-1,2,3,4,4a,7,8,8a-octahydronaphthalen-1-yl formate",CC1=CCCC2(C)C(OC=O)C(C)CCC12C,CC1CCC2(C(=CCCC2(C1OC=O)C)C)C,CC1CCC2(C(=CCCC2(C1OC=O)C)C)C,-5.031071057
DAZCYAIAMZUSID-UHFFFAOYSA-N,,Cc1ccc(NC(=O)c2cccc(N3CCCCC3)c2)cc1NC(=O)c1cccc(OC2CCNCC2)c1,Cc1ccc(cc1NC(=O)c2cccc(c2)OC3CCNCC3)NC(=O)c4cccc(c4)N5CCCCC5,CC=1C=CC(=CC1NC(=O)C=2C=CC=C(C2)OC3CCNCC3)NC(=O)C=4C=CC=C(C4)N5CCCCC5,-4.4814861
DAZHWGHCARQALS-UHFFFAOYSA-N,"PHOSPHORIC ACID, BIS(METHYLPHENYL) PHENYL ESTER",Cc1ccc(OP(=O)(Oc2ccccc2)Oc2ccccc2C)cc1,Cc1ccc(cc1)OP(=O)(Oc2ccccc2)Oc3ccccc3C,P(=O)(OC1=C(C=CC=C1)C)(OC2=CC=C(C=C2)C)OC3=CC=CC=C3,-6.37315
DAZRYUTWPPBZOY-UHFFFAOYSA-N,bis-O-(benzylidene)-D-glucitol,O[C@]12COC(c3ccccc3)O[C@@H]1[C@H]1OC(c3ccccc3)OC[C@H]1O2,c1ccc(cc1)C2OC[C@@H]3[C@H](O2)[C@@H]4[C@@](O3)(COC(O4)c5ccccc5)O,O[C@]12COC(O[C@@H]1[C@H]3OC(OC[C@H]3O2)C=4C=CC=CC4)C=5C=CC=CC5,-4.43798133
DBABZHXKTCFAPX-UHFFFAOYSA-N,Probenecid,CCCN(CCC)S(=O)(=O)c1ccc(C(=O)O)cc1,CCCN(CCC)S(=O)(=O)c1ccc(cc1)C(=O)O,S(=O)(=O)(N(CCC)CCC)C=1C=CC(=CC1)C(=O)O,-4.4505
DBAWZPPRBUSGPX-UHFFFAOYSA-O,"8-[(4-amino-3-nitrophenyl)diazenyl]-7-hydroxy-N,N,N-trimethylnaphthalen-2-aminium chloride",C[N+](C)(C)c1ccc2c(c1)/C(=N/Nc1ccc(N)c([N+](=O)[O-])c1)C(=O)C=C2,C[N+](C)(C)c1ccc2c(c1)/C(=N/Nc3ccc(c(c3)[N+](=O)[O-])N)/C(=O)C=C2,C[N+](C)(C)C=1C=CC2=C(C1)/C(=N/NC=3C=CC(=C(C3)[N+](=O)[O-])N)/C(=O)C=C2,-1.39712121
DBCRYOUBOKDASQ-UHFFFAOYSA-N,,C=CCc1c(OCc2cccc(CC(=O)O)c2)ccc2cc(Br)ccc12,C=CCc1c2ccc(cc2ccc1OCc3cccc(c3)CC(=O)O)Br,BrC=1C=CC=2C(=C(C=CC2C1)OCC=3C=CC=C(C3)CC(=O)O)CC=C,-7.2357607999999995
DBCUYSCFFFBUJG-UHFFFAOYSA-N,Isopropyl (4-chlorophenyl)sulfonyl acetate,CC(C)OC(=O)CS(=O)(=O)c1ccc(Cl)cc1,CC(C)OC(=O)CS(=O)(=O)c1ccc(cc1)Cl,S(=O)(=O)(CC(=O)OC(C)C)C=1C=CC(=CC1)Cl,-2.4095
DBDFIKCROZYTSQ-UHFFFAOYSA-N,,Cn1c(N)c(C#N)c2cc(OCc3cccc(N)c3)ccc21,Cn1c2ccc(cc2c(c1N)C#N)OCc3cccc(c3)N,CN1C(=C(C2=C1C=CC(=C2)OCC=3C=CC=C(C3)N)C#N)N,-4.7281584
DBDIQZJKRPCLDX-UHFFFAOYSA-N,,COc1cc2ncnc(Nc3cccc(C(F)(F)F)c3F)c2cc1OCCCN1CCOCC1,COc1cc2c(cc1OCCCN3CCOCC3)c(ncn2)Nc4cccc(c4F)C(F)(F)F,COC=1C=C2N=CN=C(C2=CC1OCCCN3CCOCC3)NC=4C=CC=C(C4F)C(F)(F)F,-5.5850267
DBEIAMRYPAJZHO-UHFFFAOYSA-N,"Acetamide, 2-cyano-N-methyl-N- (methylamino)carb",CNC(=O)N(C)C(=O)CC#N,CNC(=O)N(C)C(=O)CC#N,N(C(=O)NC)(C(=O)CC#N)C,0.1709
DBEPLOCGEIEOCV-UHFFFAOYSA-N,finasteride,CC(C)(C)NC(=O)[C@H]1CC[C@H]2[C@@H]3CC[C@H]4NC(=O)C=C[C@]4(C)[C@H]3CC[C@]12C,C[C@]12CC[C@H]3[C@H]([C@@H]1CC[C@@H]2C(=O)NC(C)(C)C)CC[C@@H]4[C@@]3(C=CC(=O)N4)C,C[C@]12CC[C@H]3[C@H]([C@@H]1CC[C@@H]2C(=O)NC(C)(C)C)CC[C@@H]4[C@@]3(C=CC(=O)N4)C,-4.503730067
DBGIVFWFUFKIQN-UHFFFAOYSA-N,dexfenfluramine hydrochloride,CCN[C@@H](C)Cc1cccc(C(F)(F)F)c1,CCN[C@@H](C)Cc1cccc(c1)C(F)(F)F,FC(F)(F)C=1C=C(C=CC1)CC(NCC)C,-0.15011622300000002
DBGWFNWUWDPSAM-UHFFFAOYSA-N,,C#CCN(Cc1ccc2nc(CC#N)nc(O)c2c1)c1ccc(C(=O)NCc2cccc([N+](=O)[O-])c2)cc1,C#CCN(Cc1ccc2c(c1)c(nc(n2)CC#N)O)c3ccc(cc3)C(=O)NCc4cccc(c4)[N+](=O)[O-],OC=1N=C(N=C2C1C=C(C=C2)CN(CC#C)C=3C=CC(=CC3)C(=O)NCC=4C=CC=C(C4)[N+](=O)[O-])CC#N,-7.481486099999999
DBHODFSFBXJZNY-UHFFFAOYSA-N,"BENZENEMETHANOL, 2,4-DICHLORO-",OCc1ccc(Cl)cc1Cl,c1cc(c(cc1Cl)Cl)CO,OCC=1C=CC(=CC1Cl)Cl,-2.248
DBHQYYNDKZDVTN-UHFFFAOYSA-N,{4-[(4-methylphenyl)sulfanyl]phenyl}(phenyl)methanone,Cc1ccc(Sc2ccc(C(=O)c3ccccc3)cc2)cc1,Cc1ccc(cc1)Sc2ccc(cc2)C(=O)c3ccccc3,CC=1C=CC(=CC1)SC=2C=CC(=CC2)C(=O)C=3C=CC=CC3,-7.61520413
DBIBRDVNTIWPTC-UHFFFAOYSA-N,,O=C(NCCN1CCCC1)c1ccc(Nc2ncc(Br)c(Nc3ccc(Br)cc3)n2)cc1,c1cc(ccc1C(=O)NCCN2CCCC2)Nc3ncc(c(n3)Nc4ccc(cc4)Br)Br,BrC=1C=CC(=CC1)NC=2N=C(N=CC2Br)NC=3C=CC(=CC3)C(=O)NCCN4CCCC4,-6.3767507000000005
DBJMEBUKQVZWMD-UHFFFAOYSA-N,"2H-1,4-Benzoxazin-3(4H)-one, 4-methyl-",CN1C(=O)COc2ccccc21,CN1c2ccccc2OCC1=O,N1(C(=O)COC2=C1C=CC=C2)C,-2.14425
DBKKFIIYQGGHJO-UHFFFAOYSA-N,"Propanedioic acid, oxo-, diethyl ester",CCOC(=O)C(=O)C(=O)OCC,CCOC(=O)C(=O)C(=O)OCC,CCOC(=O)C(=O)C(=O)OCC,0.5117
DBKWZDLYEJVYFR-UHFFFAOYSA-N,,CCN(C(=O)Cc1ccc(S(C)(=O)=O)cc1)C1CCN(CCC(NC(=O)Nc2ccccc2)c2ccccc2)CC1,CCN(C1CCN(CC1)CCC(c2ccccc2)NC(=O)Nc3ccccc3)C(=O)Cc4ccc(cc4)S(=O)(=O)C,CCN(C1CCN(CC1)CCC(NC(=O)NC=2C=CC=CC2)C=3C=CC=CC3)C(=O)CC=4C=CC(=CC4)S(=O)(=O)C,-3.4012095
DBMLIDVGWNHJJM-UHFFFAOYSA-N,,COc1cc2c(NC(=O)Nc3ccc(Cl)cc3)ncnc2cc1OCC1CCN(C)CC1,CN1CCC(CC1)COc2cc3c(cc2OC)c(ncn3)NC(=O)Nc4ccc(cc4)Cl,COC=1C=C2C(=NC=NC2=CC1OCC3CCN(CC3)C)NC(=O)NC=4C=CC(=CC4)Cl,-4.8239087
DBNYWIWGPRVRIP-UHFFFAOYSA-N,,COCCN1CCC(Oc2ccc(-c3cc(C(N)=O)c(NC(N)=O)s3)cn2)CC1,COCCN1CCC(CC1)Oc2ccc(cn2)c3cc(c(s3)NC(=O)N)C(=O)N,COCCN1CCC(CC1)OC=2C=CC(=CN2)C3=CC(=C(S3)NC(=O)N)C(=O)N,-2.8239087000000005
DBPWSSGDRRHUNT-UHFFFAOYSA-N,Hydroxyprogesterone-17a,CC(=O)[C@@]1(O)CC[C@H]2[C@@H]3CCC4=CC(=O)CC[C@]4(C)[C@H]3CC[C@@]21C,CC(=O)[C@]1(CC[C@@H]2[C@@]1(CC[C@H]3[C@H]2CCC4=CC(=O)CC[C@]34C)C)O,OC1(C2(C(C3C(CC2)C4(C(=CC(=O)CC4)CC3)C)CC1)C)C(=O)C,-4.71
DBQGARDMYOMOOS-UHFFFAOYSA-N,METHYL 4-DimethylAMINOBENZOATE;  4-Dimethylaminobenzoic acid methyl ester,COC(=O)c1ccc(N(C)C)cc1,CN(C)c1ccc(cc1)C(=O)OC,COC(=O)C1=CC=C(C=C1)N(C)C,-3.05
DBQWFDJBXFSAKQ-UHFFFAOYSA-N,,CCCCNc1nc(SCCC)nc2c1nnn2C1CC(C(=O)NC(CO)C(N)=O)C(O)C1O,CCCCNc1c2c(nc(n1)SCCC)n(nn2)C3CC(C(C3O)O)C(=O)NC(CO)C(=O)N,CCCCNC=1N=C(N=C2C1N=NN2C3CC(C(C3O)O)C(=O)NC(CO)C(=O)N)SCCC,-5.0939388
DBQXNXUVBDQTNC-UHFFFAOYSA-N,,COc1ccccc1OCCSc1nc2c(N)ncnc2[nH]1,COc1ccccc1OCCSc2[nH]c3c(n2)c(ncn3)N,COC=1C=CC=CC1OCCSC2=NC=3C(=NC=NC3N2)N,-4.853872
DBRYTMUUOGDANT-UHFFFAOYSA-N,"Phthalic acid, 4-nitro-, 2-methyl ester",COC(=O)c1cc([N+](=O)[O-])ccc1C(=O)O,COC(=O)c1cc(ccc1C(=O)O)[N+](=O)[O-],[N+](=O)(C=1C=C(C(=CC1)C(=O)O)C(=O)OC)[O-],-1.7209999999999999
DBTGEOGIZCZDSB-UHFFFAOYSA-N,,CNC(=O)C(NC(=O)C(CS)CC(C)C)C(C)(C)C,CC(C)CC(CS)C(=O)NC(C(=O)NC)C(C)(C)C,CNC(=O)C(NC(=O)C(CS)CC(C)C)C(C)(C)C,-3.2890368999999997
DBUCFOVFALNEOO-UHFFFAOYSA-N,CEVADINE,C/C=C(\C)C(=O)OC1CCC2(C)C3CCC4C5(O)CC(O)C6(O)C(CN7CC(C)CCC7C6(C)O)C5(O)CC42OC13O,C/C=C(\C)/C(=O)OC1CCC2(C3C1(OC24CC5(C6CN7CC(CCC7C(C6(C(CC5(C4CC3)O)O)O)(C)O)C)O)O)C,O=C(OC1CCC2(C3C1(OC24C(CC3)C5(CC(C6(C(C5(C4)O)CN7CC(CCC7C6(O)C)C)O)O)O)O)C)/C(=C/C)/C,-3.016
DBULLUBYDONGLT-UHFFFAOYSA-N,"3,3-Dimethyloctane",CCCCCC(C)(C)CC,CCCCCC(C)(C)CC,CCCCCC(C)(C)CC,-6.222
DBVDPVBXYHVAIJ-UHFFFAOYSA-N,,CCNC(=O)c1ccc(NS(=O)(=O)c2ccc(NC(=O)C(C)(O)C(F)(F)F)c(Cl)c2)cc1,CCNC(=O)c1ccc(cc1)NS(=O)(=O)c2ccc(c(c2)Cl)NC(=O)C(C)(C(F)(F)F)O,CCNC(=O)C=1C=CC(=CC1)NS(=O)(=O)C=2C=CC(=C(C2)Cl)NC(=O)C(C)(O)C(F)(F)F,-3.2365720000000002
DBVLMJUSUCGUJL-UHFFFAOYSA-N,Benzyl phenyl(sulfooxy)acetate,O=C(OCc1ccccc1)C(OS(=O)(=O)O)c1ccccc1,c1ccc(cc1)COC(=O)C(c2ccccc2)OS(=O)(=O)O,O=C(OCC1=CC=CC=C1)C(OS(=O)(=O)O)C2=CC=CC=C2,-1.5015
DBZQFUNLCALWDY-UHFFFAOYSA-N,,Nc1nccc2c1ncn2C1OC(CO)C(O)C1O,c1cnc(c2c1n(cn2)C3C(C(C(O3)CO)O)O)N,O1C(C(C(C1CO)O)O)N2C3=C(N=C2)C(=NC=C3)N,0.9946
DCAYPVUWAIABOU-UHFFFAOYSA-N,n-hexadecane,CCCCCCCCCCCCCCCC,CCCCCCCCCCCCCCCC,CCCCCCCCCCCCCCCC,-8.400004
DCAZNDCIMXHKOS-UHFFFAOYSA-N,"3-Methyl-1-benzothiophene 1,1-dioxide",CC1=CS(=O)(=O)c2ccccc21,CC1=CS(=O)(=O)c2c1cccc2,S1(=O)(=O)C2=C(C=CC=C2)C(=C1)C,-2.6675
DCBSHORRWZKAKO-UHFFFAOYSA-N,"2,3-Dihydroxypropyl tetradecanoate",CCCCCCCCCCCCCC(=O)OCC(O)CO,CCCCCCCCCCCCCC(=O)OCC(CO)O,CCCCCCCCCCCCCC(=O)OCC(O)CO,-7.397937699
DCBXTRNEQBSBNZ-UHFFFAOYSA-N,,CC(O)(C(=O)Nc1ccc(S(=O)(=O)N2CCc3ccccc32)cc1Cl)C(F)(F)F,CC(C(=O)Nc1ccc(cc1Cl)S(=O)(=O)N2CCc3c2cccc3)(C(F)(F)F)O,CC(O)(C(=O)NC=1C=CC(=CC1Cl)S(=O)(=O)N2CCC3=C2C=CC=C3)C(F)(F)F,-5.102372900000001
DCCSDBARQIPTGU-UHFFFAOYSA-N,fesoterodine,CC(C)C(=O)Oc1ccc(CO)cc1[C@H](CCN(C(C)C)C(C)C)c1ccccc1,CC(C)C(=O)Oc1ccc(cc1[C@H](CCN(C(C)C)C(C)C)c2ccccc2)CO,CC(C)C(=O)OC1=C(C=C(C=C1)CO)[C@H](CCN(C(C)C)C(C)C)C2=CC=CC=C2,-0.20621429800000002
DCHWBJNKHKXUAM-UHFFFAOYSA-N,"3-[2-(N-Methylguanidino)-acetylamino]-N-(5-sulfamoyl-[1,3,4]thiadiazol-2-yl)propionamide",CN(CC(=O)NCCC(=O)Nc1nnc(S(N)(=O)=O)s1)C(=N)N,CN(CC(=O)NCCC(=O)Nc1nnc(s1)S(=O)(=O)N)C(=N)N,CN(CC(=O)NCCC(=O)NC1=NN=C(S1)S(=O)(=O)N)C(=N)N,-1.13
DCIDDLVSNSCTHE-UHFFFAOYSA-N,2-[(~{Z})-(2-hydroxynaphthalen-1-yl)methylideneamino]guanidine,N=C(N)N/N=C/c1c(O)ccc2ccccc12,c1ccc2c(c1)ccc(c2/C=N/NC(=N)N)O,N=C(N)N/N=C/C1=C2C=CC=CC2=CC=C1O,-2.46
DCIPFSYBGTWYCR-UHFFFAOYSA-N,2-BROMO-4-NITROPHENOL,O=[N+]([O-])c1ccc(O)c(Br)c1,c1cc(c(cc1[N+](=O)[O-])Br)O,[N+](=O)([O-])C1=CC=C(C(=C1)Br)O,-0.996
DCJKUXYSYJBBRD-UHFFFAOYSA-N,,c1ccc(-c2nnc(-c3ccccc3)o2)cc1,c1ccc(cc1)c2nnc(o2)c3ccccc3,C=1C=CC(=CC1)C2=NN=C(O2)C=3C=CC=CC3,-4.79588
DCMURXAZTZQAFB-UHFFFAOYSA-N,"2,2ť,5-pcb",Clc1ccc(Cl)c(-c2ccccc2Cl)c1,c1ccc(c(c1)c2cc(ccc2Cl)Cl)Cl,ClC=1C=CC(=C(C1)C=2C=CC=CC2Cl)Cl,-5.915
DCOIYBCJIADKEB-UHFFFAOYSA-N,,CCn1c2ccccc2c2cc(NC(=O)C(C)CN3CCOCC3)ccc21,CCn1c2ccccc2c3c1ccc(c3)NC(=O)C(C)CN4CCOCC4,CCN1C=2C=CC=CC2C3=C1C=CC(=C3)NC(=O)C(C)CN4CCOCC4,-5.3565473
DCOOIGXUZNDPHR-UHFFFAOYSA-N,,Cc1ccc(-c2ncc3c(n2)-c2cccnc2CC3)cn1,Cc1ccc(cn1)c2ncc3c(n2)-c4cccnc4CC3,CC=1C=CC(=CN1)C=2N=C3C(=CN2)CCC=4C3=CC=CN4,-3.7661707000000004
DCOPUUMXTXDBNB-UHFFFAOYSA-N,"sodium 2-{2-[(2,6-dichlorophenyl)amino]phenyl}acetate",O=C(O)Cc1ccccc1Nc1c(Cl)cccc1Cl,c1ccc(c(c1)CC(=O)O)Nc2c(cccc2Cl)Cl,OC(=O)CC=1C=CC=CC1NC=2C(=CC=CC2Cl)Cl,-4.620257788
DCPXXVXZJCAQDR-UHFFFAOYSA-N,hydroxy-[8-[hydroxy(oxo)azaniumyl]oxyoctoxy]-oxoazanium,O=[N+]([O-])OCCCCCCCCO[N+](=O)[O-],C(CCCCO[N+](=O)[O-])CCCO[N+](=O)[O-],[N+](=O)(OCCCCCCCCO[N+](=O)[O-])[O-],-4.14
DCQWRDUXRZSWHI-UHFFFAOYSA-N,"Propanoic acid, 4-nitrophenyl ester",CCC(=O)Oc1ccc([N+](=O)[O-])cc1,CCC(=O)Oc1ccc(cc1)[N+](=O)[O-],[N+](=O)(C=1C=CC(=CC1)OC(=O)CC)[O-],-3.89275
DCSKAMGZSIRJAQ-UHFFFAOYSA-N,4-(2-methylbutan-2-yl)cyclohexan-1-one,CCC(C)(C)C1CCC(=O)CC1,CCC(C)(C)C1CCC(=O)CC1,CCC(C)(C)C1CCC(=O)CC1,-2.6569463890000002
DCSUBABJRXZOMT-UHFFFAOYSA-N,cisapride,COc1cc(N)c(Cl)cc1C(=O)N[C@@H]1CCN(CCCOc2ccc(F)cc2)C[C@@H]1OC,COc1cc(c(cc1C(=O)N[C@@H]2CCN(C[C@@H]2OC)CCCOc3ccc(cc3)F)Cl)N,CO[C@H]1CN(CC[C@H]1NC(=O)C2=CC(=C(C=C2OC)N)Cl)CCCOC3=CC=C(C=C3)F,-5.236975552
DCTTUHOFFKWTOS-UHFFFAOYSA-N,,Cc1ncc(-c2ccc(C(=O)N3CCN(S(=O)(=O)c4ccc5cc(Br)ccc5c4)CC3)cc2)[nH]1,Cc1[nH]c(cn1)c2ccc(cc2)C(=O)N3CCN(CC3)S(=O)(=O)c4ccc5cc(ccc5c4)Br,CC1=NC=C(N1)C=2C=CC(=CC2)C(=O)N3CCN(CC3)S(=O)(=O)C=4C=CC=5C=C(C=CC5C4)Br,-6.585026700000001
DCUFMVPCXCSVNP-UHFFFAOYSA-N,2-methylprop-2-enoyl 2-methylprop-2-enoate,C=C(C)C(=O)OC(=O)C(=C)C,CC(=C)C(=O)OC(=O)C(=C)C,CC(=C)C(=O)OC(=O)C(=C)C,-0.196779856
DCUJJWWUNKIJPH-UHFFFAOYSA-N,nitrapyrin;  2-chloro-6-trichloromethylpyridine,Clc1cccc(C(Cl)(Cl)Cl)n1,c1cc(nc(c1)Cl)C(Cl)(Cl)Cl,N1=C(C=CC=C1Cl)C(Cl)(Cl)Cl,-3.76
DCXMXXNUXSBWDI-UHFFFAOYSA-N,"?-D-Galactopyranosiduronic acid, methyl, methyl",COC(=O)C1OC(OC)C(O)C(O)C1O,COC1C(C(C(C(O1)C(=O)OC)O)O)O,C1(OC(C(C(C1O)O)O)OC)C(=O)OC,-0.264
DCXXKSXLKWAZNO-UHFFFAOYSA-N,"Acetic acid, esters with turpentine-oil myrcene fraction terpene alcs.",C=CC(=C)CCCC(C)(C)OC(C)=O,CC(=O)OC(C)(C)CCCC(=C)C=C,CC(=O)OC(C)(C)CCCC(=C)C=C,-3.597416499
DCYBHNIOTZBCFS-UHFFFAOYSA-N,disodium 2-amino-5-[(4-sulphonatophenyl)azo]benzenesulphonate,Nc1ccc(/N=N/c2ccc(S(=O)(=O)O)cc2)cc1S(=O)(=O)O,c1cc(ccc1/N=N/c2ccc(c(c2)S(=O)(=O)O)N)S(=O)(=O)O,NC=1C=CC(=CC1S(=O)(=O)O)/N=N/C=2C=CC(=CC2)S(=O)(=O)O,-0.524311813
DCYGAPKNVCQNOE-UHFFFAOYSA-N,"Benzeneacetic acid, .alpha.,.alpha.-diphenyl-",O=C(O)C(c1ccccc1)(c1ccccc1)c1ccccc1,c1ccc(cc1)C(c2ccccc2)(c3ccccc3)C(=O)O,O=C(C(C1=CC=CC=C1)(C2=CC=CC=C2)C3=CC=CC=C3)O,-3.761
DCYIADGZPJOOFN-UHFFFAOYSA-N,"16,23-dihydronaphth[2',3':6,7]indolo[2,3-c]dinaphtho[2,3-a:2'3'-i]carbazole-5,10,15,17,22,24-hexone",O=c1c2ccccc2c(=O)c2c1ccc1c2[nH]c2c3c(=O)c4ccccc4c(=O)c3c3[nH]c4c(ccc5c(=O)c6ccccc6c(=O)c54)c3c12,c1ccc2c(c1)c(=O)c3ccc4c5c6c7ccc8c(c7[nH]c6c9c(c5[nH]c4c3c2=O)c(=O)c1ccccc1c9=O)c(=O)c1ccccc1c8=O,O=C1C=2C=CC=CC2C(=O)C3=C1C=CC4=C3NC5=C4C6=C(C7=C5C(=O)C=8C=CC=CC8C7=O)NC=9C6=CC=C1C9C(=O)C2=C(C1=O)C=CC=C2,-4.509807554
DDBMQDADIHOWIC-UHFFFAOYSA-N,aclonifen;  2-chloro-6-nitro-3-phenoxyaniline,Nc1c([N+](=O)[O-])ccc(Oc2ccccc2)c1Cl,c1ccc(cc1)Oc2ccc(c(c2Cl)N)[N+](=O)[O-],NC=1C(=C(C=CC1[N+](=O)[O-])OC=2C=CC=CC2)Cl,-5.025
DDBREPKUVSBGFI-UHFFFAOYSA-N,phenobarital,CCC1(c2ccccc2)C(=O)NC(=O)NC1=O,CCC1(C(=O)NC(=O)NC1=O)c2ccccc2,O=C1NC(=O)NC(=O)C1(CC)C=2C=CC=CC2,-2.322
DDCCQNVMPXJUAY-UHFFFAOYSA-N,"METHYL  2,6-DIMETHYL-2-(1-CYCLOHEXEN-1-YL)MALONURATE",CNC(=O)NC(=O)C(C)(C(=O)OC)C1=CCCCC1,CC(C1=CCCCC1)(C(=O)NC(=O)NC)C(=O)OC,CNC(=O)NC(=O)C(C)(C(=O)OC)C1=CCCCC1,-2.68
DDDXWCWGWKBGQJ-UHFFFAOYSA-N,,CCn1c2ccccc2c2cc(NC(=O)C3CCNCC3)ccc21,CCn1c2ccccc2c3c1ccc(c3)NC(=O)C4CCNCC4,CCN1C=2C=CC=CC2C3=C1C=CC(=C3)NC(=O)C4CCNCC4,-2.853872
DDEDQHVHVPJFAC-UHFFFAOYSA-N,"4,6-Dichloro-5-nitro-2-(propylsulfanyl)pyrimidine",CCCSc1nc(Cl)c([N+](=O)[O-])c(Cl)n1,CCCSc1nc(c(c(n1)Cl)[N+](=O)[O-])Cl,CCCSC=1N=C(C(=C(N1)Cl)[N+](=O)[O-])Cl,-4.386972312
DDFGFKGJBOILQZ-UHFFFAOYSA-N,"3-{6,6-dimethylbicyclo[3.1.1]hept-2-en-2-yl}propanal",CC1(C)C2CC=C(CCC=O)C1C2,CC1(C2CC=C(C1C2)CCC=O)C,CC1(C2CC=C(C1C2)CCC=O)C,-3.465880305
DDGPBVIAYDDWDH-UHFFFAOYSA-O,3-(dodecyldimethylazaniumyl)-2-hydroxypropane-1-sulfonate,CCCCCCCCCCCC[N+](C)(C)CC(O)CS(=O)(=O)O,CCCCCCCCCCCC[N+](C)(C)CC(CS(=O)(=O)O)O,CCCCCCCCCCCC[N+](C)(C)CC(O)CS(=O)(=O)O,0.286509052
DDHYKPKLOQESMN-UHFFFAOYSA-N,"Octane-1,2-diyldinitrate",CCCCCCC(CO[N+](=O)[O-])O[N+](=O)[O-],CCCCCCC(CO[N+](=O)[O-])O[N+](=O)[O-],CCCCCCC(CO[N+](=O)[O-])O[N+](=O)[O-],-4.33
DDIQGLSDKLRVDA-UHFFFAOYSA-N,"Pyrimido[5,4-d]pyrimidine-2,4,6,8(3H,7H)-tetrone",Cn1c(=O)c2c(c(=O)n(C)c(=O)n2C)n(C)c1=O,Cn1c2c(c(=O)n(c1=O)C)n(c(=O)n(c2=O)C)C,C12=C(C(=O)N(C(=O)N1C)C)N(C(=O)N(C2=O)C)C,-2.9389999999999996
DDIZAANNODHTRB-UHFFFAOYSA-N,"p-anisic acid, methyl ester",COC(=O)c1ccc(OC)cc1,COc1ccc(cc1)C(=O)OC,O=C(OC)C1=CC=C(C=C1)OC,-2.411
DDKJBMJRSZIKOJ-UHFFFAOYSA-N,"Nonanedioic acid, 2,2-diphenyl-",O=C(O)CCCCCCC(C(=O)O)(c1ccccc1)c1ccccc1,c1ccc(cc1)C(CCCCCCC(=O)O)(c2ccccc2)C(=O)O,O=C(C(C=1C=CC=CC1)(C=2C=CC=CC2)CCCCCCC(=O)O)O,-3.92
DDLIGBOFAVUZHB-UHFFFAOYSA-N,midazolam hydrochloride,Cc1ncc2n1-c1ccc(Cl)cc1C(c1ccccc1F)=NC2,Cc1ncc2n1-c3ccc(cc3C(=NC2)c4ccccc4F)Cl,CC1=NC=C2N1C3=C(C=C(C=C3)Cl)C(=NC2)C4=CC=CC=C4F,-4.13
DDNCQMVWWZOMLN-UHFFFAOYSA-N,"Eburnamenine-14-carboxylic acid, ethyl ester, (3alpha,16alpha)-",CCOC(=O)C1=CC2(CC)CCCN3CCc4c(n1c1ccccc41)C32,CCC12CCCN3C1c4c(c5ccccc5n4C(=C2)C(=O)OCC)CC3,CCOC(=O)C1=CC2(CCCN3C2C=4N1C5=C(C4CC3)C=CC=C5)CC,-4.8385
DDNQMKLJTQURFW-UHFFFAOYSA-N,,CN(CCc1ccncc1)C(=O)Nc1ccc2c(c1)c1c(n2S(C)(=O)=O)CCCC1,CN(CCc1ccncc1)C(=O)Nc2ccc3c(c2)c4c(n3S(=O)(=O)C)CCCC4,CN(CCC=1C=CN=CC1)C(=O)NC=2C=CC=3N(C4=C(C3C2)CCCC4)S(=O)(=O)C,-4.8672373
DDOZIKGEAFPOJV-UHFFFAOYSA-N,,NS(=O)(=O)c1cccc2c(-c3cc4ccccc4o3)cccc12,c1ccc2c(c1)cc(o2)c3cccc4c3cccc4S(=O)(=O)N,NS(=O)(=O)C=1C=CC=C2C1C=CC=C2C3=CC=4C=CC=CC4O3,-6.0222764
DDRGMNDZHVYHHO-UHFFFAOYSA-N,,N#Cc1cccc(C(=O)NCCS(=O)(=O)Cc2ccc(F)cc2)c1,c1cc(cc(c1)C(=O)NCCS(=O)(=O)Cc2ccc(cc2)F)C#N,FC=1C=CC(=CC1)CS(=O)(=O)CCNC(=O)C=2C=CC=C(C2)C#N,-4.327902099999999
DDTBPAQBQHZRDW-UHFFFAOYSA-N,CYCLODODECANE,C1CCCCCCCCCCC1,C1CCCCCCCCCCC1,C1CCCCCCCCCCC1,-7.022
DDTCLMFTBAHLCY-UHFFFAOYSA-N,"Glutamic acid, N-(2-cyanoethyl)-",N#CCCN[C@@H](CCC(=O)O)C(=O)O,C(CN[C@@H](CCC(=O)O)C(=O)O)C#N,OC(=O)CC[C@H](NCCC#N)C(=O)O,-1.3019999999999998
DDUFXDBGPXQZJF-UHFFFAOYSA-N,,CSCCC(NC(=O)c1cc(NCC2CC(SC(=O)C3CCOC3)CN2)ccc1CCc1ccc(F)cc1)C(=O)OC(C)C,CC(C)OC(=O)C(CCSC)NC(=O)c1cc(ccc1CCc2ccc(cc2)F)NCC3CC(CN3)SC(=O)C4CCOC4,CSCCC(NC(=O)C=1C=C(C=CC1CCC=2C=CC(=CC2)F)NCC3CC(CN3)SC(=O)C4CCOC4)C(=O)OC(C)C,-5.522878700000001
DDUHZTYCFQRHIY-UHFFFAOYSA-N,Griseofulvin,COC1=CC(=O)C[C@@H](C)[C@]12Oc1c(Cl)c(OC)cc(OC)c1C2=O,C[C@@H]1CC(=O)C=C([C@]12C(=O)c3c(cc(c(c3O2)Cl)OC)OC)OC,ClC=1C(=CC(=C2C1OC3(C2=O)C(=CC(=O)CC3C)OC)OC)OC,-4.61
DDUIUBPJPOKOMV-UHFFFAOYSA-N,metoprotryne,COCCCNc1nc(NC(C)C)nc(SC)n1,CC(C)Nc1nc(nc(n1)SC)NCCCOC,COCCCNC=1N=C(N=C(N1)SC)NC(C)C,-2.928
DDVNRFNDOPPVQJ-UHFFFAOYSA-N,Transfluthrin,CC1(C)[C@H](C=C(Cl)Cl)[C@H]1C(=O)OCc1c(F)c(F)cc(F)c1F,CC1([C@@H]([C@H]1C(=O)OCc2c(c(cc(c2F)F)F)F)C=C(Cl)Cl)C,CC1([C@@H]([C@H]1C(=O)OCC=2C(=C(C=C(C2F)F)F)F)C=C(Cl)Cl)C,-6.81385