inchikey,Name,SMILES_stand,SMILES,kekSmiles,logS
JLYFCTQDENRSOL-UHFFFAOYSA-N,Dimethenamid,COCC(C)N(C(=O)CCl)c1c(C)csc1C,Cc1csc(c1N(C(C)COC)C(=O)CCl)C,S1C=C(C(=C1C)N(C(=O)CCl)C(COC)C)C,-2.3609999999999998
JLZFEIOGWCNGPG-UHFFFAOYSA-N,2-carboxy-n(benzoyloxyacetyl)azetidine,O=C(OCC(=O)N1CCC1C(=O)O)c1ccccc1,c1ccc(cc1)C(=O)OCC(=O)N2CCC2C(=O)O,OC(=O)C1CCN1C(=O)COC(=O)C2=CC=CC=C2,-2.141
JMALIXUFVDDDGV-UHFFFAOYSA-N,,COc1cc2c(Nc3ccc(NC(=O)c4ccccc4)cc3)ncnc2cc1OCCNCCOCCO,COc1cc2c(cc1OCCNCCOCCO)ncnc2Nc3ccc(cc3)NC(=O)c4ccccc4,COC=1C=C2C(=NC=NC2=CC1OCCNCCOCCO)NC=3C=CC(=CC3)NC(=O)C=4C=CC=CC4,-4.6307841
JMBBLDONQBXNKC-UHFFFAOYSA-N,,Cc1cccc(Nc2nc(Nc3ccc(NCCCN(C)C)cc3)ncc2Br)c1,Cc1cccc(c1)Nc2c(cnc(n2)Nc3ccc(cc3)NCCCN(C)C)Br,CN(C)CCCNC=1C=CC(=CC1)NC=2N=CC(=C(N2)NC=3C=CC=C(C3)C)Br,-3.7958800000000004
JMBQKKAJIKAWKF-UHFFFAOYSA-N,"glutethimide;  3-ethyl-3-phenyl-2,6-piperidinedione",CCC1(c2ccccc2)CCC(=O)NC1=O,CCC1(CCC(=O)NC1=O)c2ccccc2,O=C1C(CCC(=O)N1)(CC)C2=CC=CC=C2,-2.34
JMEWGCRUPXQFQL-UHFFFAOYSA-N,"1,2-dichloro-5,12-dihydroquino[2,3-b]acridine-7,14-dione",O=c1c2ccccc2[nH]c2cc3c(=O)c4c(Cl)c(Cl)ccc4[nH]c3cc12,c1ccc2c(c1)c(=O)c3cc4c(cc3[nH]2)c(=O)c5c([nH]4)ccc(c5Cl)Cl,ClC=1C=CC=2NC=3C=C4C(=O)C=5C=CC=CC5NC4=CC3C(=O)C2C1Cl,-7.066812822999999
JMGOORYWTOXUQE-UHFFFAOYSA-N,"disodium 4-amino-5-hydroxy-3-[(E)-2-(4-nitrophenyl)diazen-1-yl]-6-[(E)-2-phenyldiazen-1-yl]naphthalene-2,7-disulfonate",Nc1c(/N=N/c2ccc([N+](=O)[O-])cc2)c(S(=O)(=O)O)cc2c1C(=O)/C(=N/Nc1ccccc1)C(S(=O)(=O)O)=C2,c1ccc(cc1)N/N=C/2\C(=Cc3cc(c(c(c3C2=O)N)/N=N/c4ccc(cc4)[N+](=O)[O-])S(=O)(=O)O)S(=O)(=O)O,NC=1C(=C(C=C2C1C(=O)/C(=N/NC=3C=CC=CC3)/C(=C2)S(=O)(=O)O)S(=O)(=O)O)/N=N/C=4C=CC(=CC4)[N+](=O)[O-],-1.28002975
JMGYHLJVDHUACM-UHFFFAOYSA-N,"1,3,6,8-TETRACHLORODIBENZO-P-DIOXIN",Clc1cc(Cl)c2c(c1)Oc1cc(Cl)cc(Cl)c1O2,c1c(cc(c2c1Oc3cc(cc(c3O2)Cl)Cl)Cl)Cl,O1C2=C(C=C(C=C2Cl)Cl)OC3=C1C(=CC(=C3)Cl)Cl,-9.003
JMIMXYBNRDPYPE-UHFFFAOYSA-N,,CCn1cc(C(=O)N(C)C)nc1Sc1ccc(Nc2c(C#N)cnc3cc(OC)c(OC)cc23)cc1,CCn1cc(nc1Sc2ccc(cc2)Nc3c4cc(c(cc4ncc3C#N)OC)OC)C(=O)N(C)C,CCN1C=C(N=C1SC=2C=CC(=CC2)NC=3C(=CN=C4C3C=C(C(=C4)OC)OC)C#N)C(=O)N(C)C,-6.5287083
JMKSPIHWHMYVFU-UHFFFAOYSA-N,,COc1cc2c(Nc3ncc(CC(=O)Nc4ccccc4)s3)ncnc2cc1OCCCN1CCOCC1,COc1cc2c(cc1OCCCN3CCOCC3)ncnc2Nc4ncc(s4)CC(=O)Nc5ccccc5,COC=1C=C2C(=NC=NC2=CC1OCCCN3CCOCC3)NC4=NC=C(S4)CC(=O)NC=5C=CC=CC5,-6.4317983
JMNWCKCZTCMNML-UHFFFAOYSA-N,,CC(=O)n1c(C)c(C)c2cc(NC(=O)CN3CCCC3=O)ccc21,Cc1c(n(c2c1cc(cc2)NC(=O)CN3CCCC3=O)C(=O)C)C,CC(=O)N1C(=C(C2=C1C=CC(=C2)NC(=O)CN3CCCC3=O)C)C,-3.39794
JMRNQQWOECWUHG-UHFFFAOYSA-N,,CCN(CC)CCOc1cccc(C(=O)Nc2cc(NC(=O)c3cc(N4CCOCC4)cc(C(F)(F)F)c3)ccc2C)c1,CCN(CC)CCOc1cccc(c1)C(=O)Nc2cc(ccc2C)NC(=O)c3cc(cc(c3)N4CCOCC4)C(F)(F)F,CCN(CC)CCOC=1C=CC=C(C1)C(=O)NC=2C=C(C=CC2C)NC(=O)C=3C=C(C=C(C3)C(F)(F)F)N4CCOCC4,-5.0
JMRWVHXGVONXEZ-UHFFFAOYSA-N,"N,N'-dicyclohexylethane-1,2-diamine",C1CCC(NCCNC2CCCCC2)CC1,C1CCC(CC1)NCCNC2CCCCC2,C1CCC(CC1)NCCNC2CCCCC2,-0.98
JMUOXOJMXILBTE-UHFFFAOYSA-N,"2,2,6,6-tetramethylpiperidin-4-yl hexadecanoate 2,2,6,6-tetramethylpiperidin-4-yl octadecanoate",CCCCCCCCCCCCCCCCCC(=O)OC1CC(C)(C)NC(C)(C)C1,CCCCCCCCCCCCCCCCCC(=O)OC1CC(NC(C1)(C)C)(C)C,CCCCCCCCCCCCCCCCCC(=O)OC1CC(NC(C1)(C)C)(C)C,-6.215
JMXKCYUTURMERF-UHFFFAOYSA-N,,CC1CN(C2CCCCCCCCCCC2)CC(C)O1,CC1CN(CC(O1)C)C2CCCCCCCCCCC2,O1C(CN(CC1C)C2CCCCCCCCCCC2)C,-3.055
JNAHSSCHKKAPHI-UHFFFAOYSA-N,,COc1cc2c(Nc3ccc(Cl)cc3F)ncnc2cc1OCCCN1CCOCC1,COc1cc2c(cc1OCCCN3CCOCC3)ncnc2Nc4ccc(cc4F)Cl,COC=1C=C2C(=NC=NC2=CC1OCCCN3CCOCC3)NC=4C=CC(=CC4F)Cl,-4.6606977
JNCCPKSMQSABJR-UHFFFAOYSA-N,,CC(C)n1c2ccccc2c2cc(Nc3ccc(C(=O)NCCO)nn3)ccc21,CC(C)n1c2ccccc2c3c1ccc(c3)Nc4ccc(nn4)C(=O)NCCO,CC(C)N1C=2C=CC=CC2C3=C1C=CC(=C3)NC=4C=CC(=NN4)C(=O)NCCO,-5.4436975
JNCSIWAONQTVCF-UHFFFAOYSA-N,"dibenz[a,h]acridine",c1ccc2c(c1)ccc1nc3c(ccc4ccccc43)cc12,c1ccc2c(c1)ccc3c2cc4ccc5ccccc5c4n3,N=1C2=C(C=CC3=C2C=CC=C3)C=C4C1C=CC5=C4C=CC=C5,-6.2447
JNDVEAXZWJIOKB-UHFFFAOYSA-N,,Cc1c[nH]c(/C=C2/C(=O)Nc3ccccc32)c1CCC(=O)O,Cc1c[nH]c(c1CCC(=O)O)/C=C/2\c3ccccc3NC2=O,CC1=CNC(=C1CCC(=O)O)/C=C\2/C(=O)NC3=C2C=CC=C3,-3.3467875
JNELGWHKGNBSMD-UHFFFAOYSA-N,,O=c1c2ccccc2oc2ccccc12,c1ccc2c(c1)c(=O)c3ccccc3o2,O=C1C=2C=CC=CC2OC3=C1C=CC=C3,-4.69897
JNHUFDXYWPRKLK-UHFFFAOYSA-N,"A-(2,2,2-TRICHLOROETHYL)STYRENE",C=C(CC(Cl)(Cl)Cl)c1ccccc1,C=C(CC(Cl)(Cl)Cl)c1ccccc1,ClC(Cl)(Cl)CC(=C)C=1C=CC=CC1,-4.282
JNJJWJSQQYVYBQ-UHFFFAOYSA-N,,CSCCC(NC(=O)c1cc(OCC2CC(SC(=O)C3CCN(C)CC3)CN2)ccc1CCc1ccc(F)cc1)C(=O)OC(C)C,CC(C)OC(=O)C(CCSC)NC(=O)c1cc(ccc1CCc2ccc(cc2)F)OCC3CC(CN3)SC(=O)C4CCN(CC4)C,CSCCC(NC(=O)C=1C=C(C=CC1CCC=2C=CC(=CC2)F)OCC3CC(CN3)SC(=O)C4CCN(CC4)C)C(=O)OC(C)C,-3.39794
JNMRHUJNCSQMMB-UHFFFAOYSA-N,sulfathiozole,Nc1ccc(S(=O)(=O)Nc2nccs2)cc1,c1cc(ccc1N)S(=O)(=O)Nc2nccs2,NC=1C=CC(=CC1)S(=O)(=O)NC=2SC=CN2,-2.4275
JNNBHGMMMLSKLV-UHFFFAOYSA-N,,Cc1cc(Nc2nc(Nc3cc[nH]n3)ncc2Br)[nH]n1,Cc1cc([nH]n1)Nc2c(cnc(n2)Nc3cc[nH]n3)Br,CC=1C=C(NN1)NC=2N=C(N=CC2Br)NC=3C=CNN3,-5.563837400000001
JNPFDSPGHQBUPF-UHFFFAOYSA-N,"1-Naphthalenecarboxylic acid, 3,4-dihydro-",O=C(O)C1=CCCc2ccccc21,c1ccc2c(c1)CCC=C2C(=O)O,OC(=O)C1=CCCC2=C1C=CC=C2,-2.79395
JNPOLSNJHCFNCG-UHFFFAOYSA-N,,O=C1CSc2cc(Cl)ccc2N1,c1cc2c(cc1Cl)SCC(=O)N2,ClC=1C=CC2=C(C1)SCC(=O)N2,-4.224031200000001
JNQHBKLRBXQHJO-UHFFFAOYSA-N,1-(N-OCTYLCARBAMOYL)-5-FLUOROURACIL;  1-Octylaminocarbonyl-5-fluorouracil,CCCCCCCCNC(=O)n1cc(F)c(=O)[nH]c1=O,CCCCCCCCNC(=O)n1cc(c(=O)[nH]c1=O)F,CCCCCCCCNC(=O)N1C=C(C(=O)NC1=O)F,-4.18
JNQQEDYUWRZNDU-UHFFFAOYSA-N,"2-Hydroxy-N-(3,5-dimethyl-4-isoxazolyl)-1,4-naphthoquinone-4-imine",Cc1noc(C)c1/N=C1/C=C(O)C(=O)c2ccccc21,Cc1c(c(on1)C)/N=C\2/C=C(C(=O)c3c2cccc3)O,CC1=C(C(=NO1)C)/N=C\2/C=C(C(=O)C3=C2C=CC=C3)O,-3.89
JNRLEMMIVRBKJE-UHFFFAOYSA-N,,CN(C)c1ccc(Cc2ccc(N(C)C)cc2)cc1,CN(C)c1ccc(cc1)Cc2ccc(cc2)N(C)C,N(C1=CC=C(C=C1)CC2=CC=C(C=C2)N(C)C)(C)C,-4.785
JNTOCHDNEULJHD-UHFFFAOYSA-N,penciclovir,Nc1nc2c(ncn2CCC(CO)CO)c(=O)[nH]1,c1nc2c(=O)[nH]c(nc2n1CCC(CO)CO)N,C1=NC2=C(N1CCC(CO)CO)N=C(NC2=O)N,-0.17311768100000002
JNTQXHJMCNMUIT-UHFFFAOYSA-N,,COc1cc2ncnc(Nc3ccc(F)c(Cl)c3)c2cc1OCCCN1CC(C)OC(C)C1,CC1CN(CC(O1)C)CCCOc2cc3c(cc2OC)ncnc3Nc4ccc(c(c4)Cl)F,COC=1C=C2N=CN=C(C2=CC1OCCCN3CC(OC(C3)C)C)NC=4C=CC(=C(C4)Cl)F,-5.408935400000001
JNUYHWLTLUWAHL-UHFFFAOYSA-N,,CSCCC(CNC(CC(=O)O)c1ccc2c(c1)OCO2)NC(=O)Cc1ccc2nc(Nc3ccccc3)oc2c1,CSCCC(CNC(CC(=O)O)c1ccc2c(c1)OCO2)NC(=O)Cc3ccc4c(c3)oc(n4)Nc5ccccc5,CSCCC(CNC(CC(=O)O)C=1C=CC2=C(C1)OCO2)NC(=O)CC=3C=CC=4N=C(OC4C3)NC=5C=CC=CC5,-3.6197888
JNWBIKUVNJYWSD-UHFFFAOYSA-N,,COc1cc2c(Nc3ccc(OCc4ccccc4)nc3)ncnc2cc1OCCCN1CCOCC1,COc1cc2c(cc1OCCCN3CCOCC3)ncnc2Nc4ccc(nc4)OCc5ccccc5,COC=1C=C2C(=NC=NC2=CC1OCCCN3CCOCC3)NC=4C=CC(=NC4)OCC=5C=CC=CC5,-6.537602
JNWNIRBRHPSLRJ-UHFFFAOYSA-N,,COc1cc2c(Nc3ccc(C(=O)NC4CCCC4)cc3)ncnc2cc1OCCCN1CCOCC1,COc1cc2c(cc1OCCCN3CCOCC3)ncnc2Nc4ccc(cc4)C(=O)NC5CCCC5,COC=1C=C2C(=NC=NC2=CC1OCCCN3CCOCC3)NC=4C=CC(=CC4)C(=O)NC5CCCC5,-5.1674910999999994
JNZKMFGLOMFCED-UHFFFAOYSA-N,bupivacaine,CN(C)CC/C=C1\C2CCCCC2SC2CCC(Cl)CC12,CN(C)CC/C=C/1\C2CCCCC2SC3C1CC(CC3)Cl,CN(C)CC/C=C/1\C2C(CCCC2)SC3C1CC(CC3)Cl,-3.2239999999999998
JOATXPAWOHTVSZ-UHFFFAOYSA-N,Celiprolol,CCN(CC)C(=O)Nc1ccc(OCC(O)CNC(C)(C)C)c(C(C)=O)c1,CCN(CC)C(=O)Nc1ccc(c(c1)C(=O)C)OCC(CNC(C)(C)C)O,CCN(CC)C(=O)NC1=CC(=C(C=C1)OCC(O)CNC(C)(C)C)C(=O)C,-1.9
JOBGXGOXICNQSC-UHFFFAOYSA-N,,Cc1ccccc1Cn1cc(C(=O)Nc2ccc(C(=O)O)cn2)c2ccccc21,Cc1ccccc1Cn2cc(c3c2cccc3)C(=O)Nc4ccc(cn4)C(=O)O,CC=1C=CC=CC1CN2C=C(C3=C2C=CC=C3)C(=O)NC=4C=CC(=CN4)C(=O)O,-4.145694000000001
JODCQKTVDXZQEP-UHFFFAOYSA-N,N-(3-TOLYL)ANTHRANILIC  ACID;  2-(3-Tolylamino)benzoic acid,Cc1cccc(Nc2ccccc2C(=O)O)c1,Cc1cccc(c1)Nc2ccccc2C(=O)O,CC1=CC=CC(=C1)NC2=CC=CC=C2C(=O)O,-5.06
JOFWLTCLBGQGBO-UHFFFAOYSA-N,Triazolam,Cc1nnc2n1-c1ccc(Cl)cc1C(c1ccccc1Cl)=NC2,Cc1nnc2n1-c3ccc(cc3C(=NC2)c4ccccc4Cl)Cl,ClC=1C(=CC=CC1)C2=NCC=3N(C(=NN3)C)C=4C2=CC(=CC4)Cl,-4.08
JOGWSCYCRAPHFB-UHFFFAOYSA-N,,COc1cc2c(Nc3cnc(NC(=O)c4cccc(Cl)c4)nc3)ncnc2cc1OCC(O)CN1CCCC(CO)C1,COc1cc2c(cc1OCC(CN3CCCC(C3)CO)O)ncnc2Nc4cnc(nc4)NC(=O)c5cccc(c5)Cl,COC=1C=C2C(=NC=NC2=CC1OCC(O)CN3CCCC(C3)CO)NC=4C=NC(=NC4)NC(=O)C=5C=CC=C(C5)Cl,-3.0
JOHZPMXAZQZXHR-UHFFFAOYSA-N,pipemidic acid,CCn1cc(C(=O)O)c(=O)c2cnc(N3CCNCC3)nc21,CCn1cc(c(=O)c2c1nc(nc2)N3CCNCC3)C(=O)O,CCN1C=C(C(=O)C2=C1N=C(N=C2)N3CCNCC3)C(=O)O,-2.98
JOKWBYRXTLJTPJ-UHFFFAOYSA-N,,CNC(=O)C(C)(C)Oc1ccccc1Oc1ccc(Nc2c(C#N)cnc3cc(OC)c(OC)cc23)cc1,CC(C)(C(=O)NC)Oc1ccccc1Oc2ccc(cc2)Nc3c4cc(c(cc4ncc3C#N)OC)OC,CNC(=O)C(C)(C)OC=1C=CC=CC1OC=2C=CC(=CC2)NC=3C(=CN=C4C3C=C(C(=C4)OC)OC)C#N,-7.221848700000001
JOLVGDBQVXAKML-UHFFFAOYSA-N,"BENZENESULFONAMIDE, 3-FLUORO-4-[(4-HYDROXYBUTYL)",NS(=O)(=O)c1ccc(S(=O)(=O)CCCCO)c(F)c1,c1cc(c(cc1S(=O)(=O)N)F)S(=O)(=O)CCCCO,S(=O)(=O)(C=1C=CC(=C(C1)F)S(=O)(=O)CCCCO)N,-1.834
JOOGNBMRVNYBET-UHFFFAOYSA-N,2-(DIETHYLACETOXY)BENZOIC  ACID,CCC(CC)C(=O)Oc1ccccc1C(=O)O,CCC(CC)C(=O)Oc1ccccc1C(=O)O,CCC(CC)C(=O)OC1=C(C=CC=C1)C(=O)O,-1.84
JOOMJVFZQRQWKR-UHFFFAOYSA-N,PYRAZOPHOS,CCOC(=O)c1cn2nc(OP(=S)(OCC)OCC)cc2nc1C,CCOC(=O)c1cn2c(cc(n2)OP(=S)(OCC)OCC)nc1C,CCOC(=O)C1=CN2N=C(C=C2N=C1C)OP(=S)(OCC)OCC,-4.949
JOQQIUGZVLGELZ-UHFFFAOYSA-N,,CC(C)(C(=O)Nc1cccc(OCCCC(=O)O)c1)c1ccc2nc(Nc3ccccc3)oc2c1,CC(C)(c1ccc2c(c1)oc(n2)Nc3ccccc3)C(=O)Nc4cccc(c4)OCCCC(=O)O,CC(C)(C(=O)NC=1C=CC=C(C1)OCCCC(=O)O)C=2C=CC=3N=C(OC3C2)NC=4C=CC=CC4,-4.3187587999999995
JORNJVDPZHKPNJ-UHFFFAOYSA-N,"3-(1-AZIRIDINYL)-4,6-DINITRO-(N,N-DIMETHYL)BENZAMIDE",CN(C)C(=O)c1cc(N2CC2)c([N+](=O)[O-])cc1[N+](=O)[O-],CN(C)C(=O)c1cc(c(cc1[N+](=O)[O-])[N+](=O)[O-])N2CC2,CN(C)C(=O)C1=CC(=C(C=C1[N+](=O)[O-])[N+](=O)[O-])N2CC2,-2.48
JOWXNCPELQZFHF-UHFFFAOYSA-N,"2-{[3,3-bis(3-tert-butyl-4-hydroxyphenyl)butanoyl]oxy}ethyl 3,3-bis(3-tert-butyl-4-hydroxyphenyl)butanoate",CC(C)(C)c1cc(C(C)(CC(=O)OCCOC(=O)CC(C)(c2ccc(O)c(C(C)(C)C)c2)c2ccc(O)c(C(C)(C)C)c2)c2ccc(O)c(C(C)(C)C)c2)ccc1O,CC(C)(C)c1cc(ccc1O)C(C)(CC(=O)OCCOC(=O)CC(C)(c2ccc(c(c2)C(C)(C)C)O)c3ccc(c(c3)C(C)(C)C)O)c4ccc(c(c4)C(C)(C)C)O,CC(C)(C)C=1C=C(C=CC1O)C(C)(CC(=O)OCCOC(=O)CC(C)(C=2C=CC(=C(C2)C(C)(C)C)O)C=3C=CC(=C(C3)C(C)(C)C)O)C=4C=CC(=C(C4)C(C)(C)C)O,-6.201217681
JOXIMZWYDAKGHI-UHFFFAOYSA-N,sodium 4-methylbenzene-1-sulfonate,Cc1ccc(S(=O)(=O)O)cc1,Cc1ccc(cc1)S(=O)(=O)O,S(=O)(=O)(C1=CC=C(C=C1)C)O,0.5564
JOYQPINQNBHROU-UHFFFAOYSA-N,,O=C(O)c1cc2cc(O)c(Br)cc2n1Cc1ccc(Cl)c(Cl)c1,c1cc(c(cc1Cn2c3cc(c(cc3cc2C(=O)O)O)Br)Cl)Cl,OC(=O)C1=CC=2C=C(C(=CC2N1CC=3C=CC(=C(C3)Cl)Cl)Br)O,-2.4436975
JOZKFWLRHCDGJA-UHFFFAOYSA-N,"3,7-Dimethyloct-6-en-1-yl acetate",CC(=O)OCCC(C)CCC=C(C)C,CC(CCC=C(C)C)CCOC(=O)C,CC(CCOC(=O)C)CCC=C(C)C,-4.095969365
JPDVZFGZORGXAL-UHFFFAOYSA-N,,Cn1c2ccccc2c2cc(NC(=O)CCc3ccncc3)ccc21,Cn1c2ccccc2c3c1ccc(c3)NC(=O)CCc4ccncc4,CN1C=2C=CC=CC2C3=C1C=CC(=C3)NC(=O)CCC=4C=CN=CC4,-4.9586073
JPEDHHGXVGENMN-UHFFFAOYSA-N,Methyl (1-(4-nitro)phenylsulfonyl) cyclopropane,COC(=O)C1(S(=O)(=O)c2ccc([N+](=O)[O-])cc2)CC1,COC(=O)C1(CC1)S(=O)(=O)c2ccc(cc2)[N+](=O)[O-],COC(=O)C1(CC1)S(=O)(=O)C=2C=CC(=CC2)[N+](=O)[O-],-3.37985
JPENUURSSUNMFN-UHFFFAOYSA-N,"N-hydroxy-1,3,3~{a},4,5,6-hexahydrobenzo[de]isoquinoline-2-carboximidamide",N/C(=N\O)N1Cc2cccc3c2C(CCC3)C1,c1cc2c3c(c1)CN(CC3CCC2)/C(=N/O)/N,N/C(=N\O)/N1CC2=CC=CC3=C2C(C1)CCC3,-1.35
JPFWJDMDPLEUBD-UHFFFAOYSA-N,,NC(=O)OCC(O)C(O)C(N)C(=O)NC(C(=O)O)C1OC(n2cc(C(=O)O)c(=O)[nH]c2=O)C(O)C1O,c1c(c(=O)[nH]c(=O)n1C2C(C(C(O2)C(C(=O)O)NC(=O)C(C(C(COC(=O)N)O)O)N)O)O)C(=O)O,N1(C(=O)NC(=O)C(=C1)C(=O)O)C2OC(C(C2O)O)C(NC(=O)C(C(C(COC(=O)N)O)O)N)C(=O)O,-1.168
JPGXOMADPRULAC-UHFFFAOYSA-N,DIBUTYL BUTYLPHOSPHONATE,CCCCOP(=O)(CCCC)OCCCC,CCCCOP(=O)(CCCC)OCCCC,P(=O)(OCCCC)(OCCCC)CCCC,-2.69975
JPIJOUXSDCTHOH-UHFFFAOYSA-N,,COc1cc2c(Nc3ccc(NC(=O)c4ccccc4)cc3)ncnc2cc1OCCCN1CC(C)OC(C)C1,CC1CN(CC(O1)C)CCCOc2cc3c(cc2OC)c(ncn3)Nc4ccc(cc4)NC(=O)c5ccccc5,COC=1C=C2C(=NC=NC2=CC1OCCCN3CC(OC(C3)C)C)NC=4C=CC(=CC4)NC(=O)C=5C=CC=CC5,-5.251812
JPIYZTWMUGTEHX-UHFFFAOYSA-N,,CN(C)c1ccc(C(=N)c2ccc(N(C)C)cc2)cc1,CN(C)c1ccc(cc1)C(=N)c2ccc(cc2)N(C)C,N=C(C1=CC=C(C=C1)N(C)C)C2=CC=C(C=C2)N(C)C,-1.4269999999999998
JPJWFNHMOPQSBQ-UHFFFAOYSA-N,"Urea, 1-methyl-1-p-tolyl-",Cc1ccc(N(C)C(N)=O)cc1,Cc1ccc(cc1)N(C)C(=O)N,CN(C(=O)N)C=1C=CC(=CC1)C,-0.423
JPLCQHHISLYGRA-UHFFFAOYSA-N,N-(6-methoxypyridin-3-yl)cyclopropanecarboxamide,COc1ccc(NC(=O)C2CC2)cn1,COc1ccc(cn1)NC(=O)C2CC2,O=C(NC=1C=NC(=CC1)OC)C2CC2,-2.138
JPLFNXAOYKLVIJ-UHFFFAOYSA-N,,Cc1ccccc1NC(=O)Nc1ccc(NC(=O)OC2CCCc3c(OCCCC(=O)O)cccc32)cc1,Cc1ccccc1NC(=O)Nc2ccc(cc2)NC(=O)OC3CCCc4c3cccc4OCCCC(=O)O,CC=1C=CC=CC1NC(=O)NC=2C=CC(=CC2)NC(=O)OC3CCCC4=C3C=CC=C4OCCCC(=O)O,-4.327902099999999
JPLHEEQBBFTOKE-UHFFFAOYSA-N,,COc1cc2c(Nc3ccc(F)c(Cl)c3)ncnc2cc1OCCCN1CC=CC1,COc1cc2c(cc1OCCCN3CC=CC3)ncnc2Nc4ccc(c(c4)Cl)F,COC=1C=C2C(=NC=NC2=CC1OCCCN3CC=CC3)NC=4C=CC(=C(C4)Cl)F,-3.6777807
JPMIIZHYYWMHDT-UHFFFAOYSA-N,"3(2H)-ISOTHIAZOLONE, 2-OCTYL-",CCCCCCCCn1sccc1=O,CCCCCCCCn1c(=O)ccs1,CCCCCCCCN1SC=CC1=O,-2.63005
JPMLOZMLVLWGQP-UHFFFAOYSA-N,ethyl biscoumacetate,CCOC(=O)Cc1c(O)c2ccccc2oc1=O,CCOC(=O)Cc1c(c2ccccc2oc1=O)O,O=C1C(=C(C2=CC=CC=C2O1)O)CC(=O)OCC,-3.66
JPMVIYLNKGWFBU-UHFFFAOYSA-N,,CC(Oc1ccc(-c2ccc(C#N)c(Cl)c2)cc1)C(O)CCc1cccnc1,CC(C(CCc1cccnc1)O)Oc2ccc(cc2)c3ccc(c(c3)Cl)C#N,ClC=1C=C(C=CC1C#N)C=2C=CC(=CC2)OC(C)C(O)CCC=3C=NC=CC3,-4.541188099999999
JPOFMNPDKKAADL-UHFFFAOYSA-N,"1,2-Cycloheptanedione, dioxime",O=NC1CCCCCC1N=O,C1CCC(C(CC1)N=O)N=O,N(=O)C1CCCCCC1N=O,-1.425
JPRHQAZOGJOKRG-UHFFFAOYSA-N,,O=C(NCCS(=O)(=O)Cc1ccccc1)c1ccccc1,c1ccc(cc1)CS(=O)(=O)CCNC(=O)c2ccccc2,O=C(NCCS(=O)(=O)CC=1C=CC=CC1)C=2C=CC=CC2,-4.1303121
JPUGGGCNNKXYCU-UHFFFAOYSA-N,"Acetic acid, (cyclopentyloxy)-",O=C(O)COC1CCCC1,C1CCC(C1)OCC(=O)O,OC(=O)COC1CCCC1,-0.8471
JPUMREVAEBJASI-UHFFFAOYSA-N,"Spiro[benzofuran-2(3H),1'-[2]cyclhexene-3,4'-dio",COc1cc(OC)c2c(c1Cl)OC1(C2=O)C(OC2OC(COC(C)=O)C(OC(C)=O)C(OC(C)=O)C2OC(C)=O)=CC(=O)CC1C,CC1CC(=O)C=C(C12C(=O)c3c(cc(c(c3O2)Cl)OC)OC)OC4C(C(C(C(O4)COC(=O)C)OC(=O)C)OC(=O)C)OC(=O)C,C12(C(=O)C=3C(=CC(=C(C3O1)Cl)OC)OC)C(=CC(=O)CC2C)OC4C(C(C(C(O4)COC(=O)C)OC(=O)C)OC(=O)C)OC(=O)C,-4.0
JPUNSXQJJYVQJL-UHFFFAOYSA-N,,CCOC(=O)Cc1nnc2c(CC(C)C)nc(-c3ccc(C)cc3)cn12,CCOC(=O)Cc1nnc2n1cc(nc2CC(C)C)c3ccc(cc3)C,CCOC(=O)CC1=NN=C2N1C=C(N=C2CC(C)C)C=3C=CC(=CC3)C,-4.8860566
JPUPWOAYIMBRQG-UHFFFAOYSA-N,,CCN(CC)C(=O)C(C)(C)c1ccc2[nH]c(-c3cc(C)cc(C)c3)c(CCN/C(=N\C#N)NCCc3ccc(S(N)(=O)=O)cc3)c2c1,CCN(CC)C(=O)C(C)(C)c1ccc2c(c1)c(c([nH]2)c3cc(cc(c3)C)C)CCN/C(=N\C#N)/NCCc4ccc(cc4)S(=O)(=O)N,CCN(CC)C(=O)C(C)(C)C=1C=CC=2NC(=C(C2C1)CCN/C(=N\C#N)/NCCC=3C=CC(=CC3)S(=O)(=O)N)C=4C=C(C=C(C4)C)C,-7.0
JPVHXOVQSCXHBH-UHFFFAOYSA-N,,Oc1ccc2c(c1)cc(-c1nnn[nH]1)n2Cc1ccc(Cl)c(Cl)c1,c1cc(c(cc1Cn2c3ccc(cc3cc2c4[nH]nnn4)O)Cl)Cl,OC=1C=CC=2N(C(=CC2C1)C3=NN=NN3)CC=4C=CC(=C(C4)Cl)Cl,-2.3665315
JPYQFYIEOUVJDU-UHFFFAOYSA-N,N-benzyl-3-chloropropanamide,O=C(CCCl)NCc1ccccc1,c1ccc(cc1)CNC(=O)CCCl,ClCCC(=O)NCC=1C=CC=CC1,-3.2960000000000003
JQANOYBJRYYFQI-UHFFFAOYSA-N,"BENZO[a]PYRENE, 5-METHYL-",Cc1cc2cccc3ccc4c5ccccc5cc1c4c32,Cc1cc2cccc3c2c4c1cc5ccccc5c4cc3,CC=1C=C2C=CC=C3C2=C4C1C=C5C(=C4C=C3)C=CC=C5,-8.522
JQBBXAXNJKIPQB-UHFFFAOYSA-N,,COc1ccc(Cl)c(Nc2ncnc3cc(OCC(O)CN4CCC4)c(OC)cc23)c1,COc1ccc(c(c1)Nc2c3cc(c(cc3ncn2)OCC(CN4CCC4)O)OC)Cl,COC=1C=CC(=C(C1)NC=2N=CN=C3C2C=C(C(=C3)OCC(O)CN4CCC4)OC)Cl,-2.9208187999999997
JQCLKZPQSOAGLX-UHFFFAOYSA-N,,COc1cc2ncnc(Nc3ccc(F)c(Cl)c3)c2cc1NC(=O)NCCCN1CCCC1,COc1cc2c(cc1NC(=O)NCCCN3CCCC3)c(ncn2)Nc4ccc(c(c4)Cl)F,COC=1C=C2N=CN=C(C2=CC1NC(=O)NCCCN3CCCC3)NC=4C=CC(=C(C4)Cl)F,-2.6575773
JQCXWCOOWVGKMT-UHFFFAOYSA-N,"diheptyl benzene-1,2-dicarboxylate",CCCCCCCOC(=O)c1ccccc1C(=O)OCCCCCCC,CCCCCCCOC(=O)c1ccccc1C(=O)OCCCCCCC,CCCCCCCOC(=O)C1=C(C=CC=C1)C(=O)OCCCCCCC,-8.5595
JQDJTEVUGHCYPQ-UHFFFAOYSA-N,6-methyl-3h-pteridin-4-one;  4-hydroxy-6-methylpteridine,Cc1cnc2[nH]cnc(=O)c2n1,Cc1cnc2c(n1)c(=O)nc[nH]2,CC1=NC2=C(N=CNC2=O)N=C1,-1.6495
JQESXWFJFOXHKW-UHFFFAOYSA-N,,COc1cc2ncnc(Nc3ccc4[nH]cc(Br)c4c3)c2cc1OCCCN1CCOCC1,COc1cc2c(cc1OCCCN3CCOCC3)c(ncn2)Nc4ccc5c(c4)c(c[nH]5)Br,COC=1C=C2N=CN=C(C2=CC1OCCCN3CCOCC3)NC=4C=CC=5NC=C(C5C4)Br,-4.2441251
JQGHZCYWVYWWOD-UHFFFAOYSA-N,,NS(=O)(=O)c1ccc(-c2nc3ncccc3[nH]2)cc1,c1cc2c(nc1)nc([nH]2)c3ccc(cc3)S(=O)(=O)N,NS(=O)(=O)C=1C=CC(=CC1)C2=NC=3N=CC=CC3N2,-4.3187587999999995
JQJRESSXOVAECC-UHFFFAOYSA-N,,COc1cc([N+](=O)[O-])c(OC)cc1CC(C)N,CC(Cc1cc(c(cc1OC)[N+](=O)[O-])OC)N,CC(N)CC1=C(C=C(C(=C1)OC)[N+](=O)[O-])OC,0.9544
JQKDIRYFZWAOTB-UHFFFAOYSA-N,"Butanoic acid, 2-[(2-amino-1-oxobutyl)amino]-, [",CCC(N)C(=O)NC(CC)C(=O)O,CCC(C(=O)NC(CC)C(=O)O)N,C(=O)(NC(C(=O)O)CC)C(N)CC,-1.297
JQKOPPOFZCTWFF-UHFFFAOYSA-N,,CCN(CC)C(=O)C(C)(C)c1ccc2[nH]c(-c3cc(C)cc(C)c3)c(CCNC(=O)NCCCc3ccncc3)c2c1,CCN(CC)C(=O)C(C)(C)c1ccc2c(c1)c(c([nH]2)c3cc(cc(c3)C)C)CCNC(=O)NCCCc4ccncc4,CCN(CC)C(=O)C(C)(C)C=1C=CC=2NC(=C(C2C1)CCNC(=O)NCCCC=3C=CN=CC3)C=4C=C(C=C(C4)C)C,-6.638272200000001
JQMAWYRGSOSWNJ-UHFFFAOYSA-N,2-bromo-N-[4-chloro-2-(2-chlorobenzoyl)phenyl]acetamide,O=C(CBr)Nc1ccc(Cl)cc1C(=O)c1ccccc1Cl,c1ccc(c(c1)C(=O)c2cc(ccc2NC(=O)CBr)Cl)Cl,ClC=1C=CC(=C(C1)C(=O)C=2C=CC=CC2Cl)NC(=O)CBr,-6.888904144
JQNOJPRGXMMBQO-UHFFFAOYSA-N,"Propionic acid, 3,3-dimethyl-2,3'-iminodi-",CC(C)C(NCCC(=O)O)C(=O)O,CC(C)C(C(=O)O)NCCC(=O)O,C(=O)(C(NCCC(=O)O)C(C)C)O,-0.8967
JQQBZDIFLUBFEW-UHFFFAOYSA-N,"5,5'-(1,2-Ethanediyl)di(2-furancarboximidamide)",N=C(N)c1ccc(CCc2ccc(C(=N)N)o2)o1,c1cc(oc1CCc2ccc(o2)C(=N)N)C(=N)N,N=C(N)C1=CC=C(O1)CCC2=CC=C(O2)C(=N)N,-1.0215
JQSHBVHOMNKWFT-UHFFFAOYSA-N,varenicline tartrate,c1cnc2cc3c(cc2n1)C1CNCC3C1,c1cnc2cc3c(cc2n1)C4CC3CNC4,C1C2CNCC1C=3C2=CC=4C(C3)=NC=CN4,-0.7005955629999999
JQTIFLNFYNBCAF-UHFFFAOYSA-N,4-NITROPHENYL-KNI-727,CC(C)(C)NC(=O)C1N(C(=O)C(O)C(Cc2ccccc2)NC(=O)c2ccc([N+](=O)[O-])cc2)CSC1(C)C,CC1(C(N(CS1)C(=O)C(C(Cc2ccccc2)NC(=O)c3ccc(cc3)[N+](=O)[O-])O)C(=O)NC(C)(C)C)C,CC(C)(C)NC(=O)C1N(CSC1(C)C)C(=O)C(O)C(CC2=CC=CC=C2)NC(=O)C3=CC=C(C=C3)[N+](=O)[O-],-3.98
JQUIGGQYRQVIIE-UHFFFAOYSA-N,"ACETAMIDE, N-ACETYL-2-(BENZOYLOXY)-N-METHYL-",CC(=O)N(C)C(=O)COC(=O)c1ccccc1,CC(=O)N(C)C(=O)COC(=O)c1ccccc1,O=C(N(C(=O)C)C)COC(=O)C=1C=CC=CC1,-0.5
JQUKCPUPFALELS-UHFFFAOYSA-N,isomazole,COc1cc([S+](C)[O-])ccc1-c1nc2ccncc2[nH]1,COc1cc(ccc1c2[nH]c3cnccc3n2)S(=O)C,COC1=C(C=CC(=C1)S(=O)C)C2=NC3=C(N2)C=NC=C3,-2.361486074
JQVMRGYDSQFFJC-UHFFFAOYSA-N,Cyano-acetic acid benzylamide,N#CCC(=O)NCc1ccccc1,c1ccc(cc1)CNC(=O)CC#N,C(=O)(CC#N)NCC=1C=CC=CC1,-2.065
JQXJLZDMBVGAJX-UHFFFAOYSA-N,"Hydantoin, 1-[[3-(5-nitro-2-furyl)allylidene]ami",O=C1CN(/N=C/C=C/c2ccc([N+](=O)[O-])o2)C(=S)N1,c1cc(oc1/C=C/C=N/N2CC(=O)NC2=S)[N+](=O)[O-],O=C1NC(=S)N(C1)/N=C/C=C/C=2OC(=CC2)[N+](=O)[O-],-3.9560000000000004
JQXRTKKMEZTUFS-UHFFFAOYSA-N,"2,4-Hexadienedioic acid, 3-methyl-, 6-methyl est",COC(=O)/C=C/C(C)=C/C(=O)O,C/C(=C\C(=O)O)/C=C/C(=O)OC,O=C(O)/C=C(/C=C/C(=O)OC)\C,-0.87495
JQXSGQACFFFOIU-UHFFFAOYSA-N,"L-Glutamic acid, N,N-bis(2-cyanoethyl)-",N#CCCN(CCC#N)C(CCC(=O)O)C(=O)O,C(CN(CCC#N)C(CCC(=O)O)C(=O)O)C#N,OC(=O)CCC(N(CCC#N)CCC#N)C(=O)O,-0.2275
JQXXHWHPUNPDRT-UHFFFAOYSA-N,Rifampin,CO[C@H]1/C=C\O[C@@]2(C)Oc3c(C)c(O)c4c(O)c(c(/C=N/N5CCN(C)CC5)c(O)c4c3C2=O)NC(=O)/C(C)=C\C=C/[C@H](C)[C@H](O)[C@@H](C)[C@@H](O)[C@@H](C)[C@H](OC(C)=O)[C@@H]1C,Cc1c(c2c3c4c1O[C@@](C4=O)(O/C=C\[C@@H]([C@H]([C@H]([C@@H]([C@@H]([C@@H]([C@H]([C@H](\C=C/C=C(\C(=O)Nc(c2O)c(c3O)/C=N/N5CCN(CC5)C)/C)C)O)C)O)C)OC(=O)C)C)OC)C)O,O=C(OC1C(C(/C=C\OC2(OC=3C(=C4C(=C(C(=C(C4=C(C3C)O)O)NC(=O)\C(=C/C=C\C(C(C(C(C1C)O)C)O)C)\C)/C=N/N5CCN(CC5)C)O)C2=O)C)OC)C)C,-2.7689999999999997
JQYKOZWSIDWANU-UHFFFAOYSA-N,,COc1cc2c(Nc3ccc(Oc4cccc(NCC(=O)NCC5CC5)c4)cc3)c(C#N)cnc2cc1OCCCN1CC(C)OC(C)C1,CC1CN(CC(O1)C)CCCOc2cc3c(cc2OC)c(c(cn3)C#N)Nc4ccc(cc4)Oc5cccc(c5)NCC(=O)NCC6CC6,COC=1C=C2C(=C(C=NC2=CC1OCCCN3CC(OC(C3)C)C)C#N)NC=4C=CC(=CC4)OC=5C=CC=C(C5)NCC(=O)NCC6CC6,-6.638272200000001
JQZCEEAFAUEXHL-UHFFFAOYSA-N,,COCCCNS(=O)(=O)c1ccc(Nc2nccc(-c3cnc(C)n3CCOC)n2)cc1,Cc1ncc(n1CCOC)c2ccnc(n2)Nc3ccc(cc3)S(=O)(=O)NCCCOC,COCCCNS(=O)(=O)C=1C=CC(=CC1)NC=2N=CC=C(N2)C3=CN=C(N3CCOC)C,-4.950782
JQZDGDWESMIHIV-UHFFFAOYSA-N,,COc1cc2c(Nc3ncc(CC(=O)Nc4ccc(F)c(F)c4)s3)ncnc2cc1OCC(O)CNC1CCCC1,COc1cc2c(cc1OCC(CNC3CCCC3)O)ncnc2Nc4ncc(s4)CC(=O)Nc5ccc(c(c5)F)F,COC=1C=C2C(=NC=NC2=CC1OCC(O)CNC3CCCC3)NC4=NC=C(S4)CC(=O)NC=5C=CC(=C(C5)F)F,-5.8239087
JRBJSXQPQWSCCF-UHFFFAOYSA-N,"3,3'-dimethoxybenzidine;  4,4'-diamino-3,3'-dimethoxybiphenyl",COc1cc(-c2ccc(N)c(OC)c2)ccc1N,COc1cc(ccc1N)c2ccc(c(c2)OC)N,COC=1C=C(C=CC1N)C=2C=CC(=C(C2)OC)N,-3.61
JRBPAEWTRLWTQC-UHFFFAOYSA-N,n-dodecylamine,CCCCCCCCCCCCN,CCCCCCCCCCCCN,NCCCCCCCCCCCC,-3.3760000000000003