inchikey,Name,SMILES_stand,SMILES,kekSmiles,logS
CLEVULOKVPBHCU-UHFFFAOYSA-N,(2S)-2-hydroxy-3-(phenylamino)propane-1-sulfonate,O=S(=O)(O)C[C@@H](O)CNc1ccccc1,c1ccc(cc1)NC[C@@H](CS(=O)(=O)O)O,O[C@@H](CNC=1C=CC=CC1)CS(=O)(=O)O,0.118792245
CLFRCXCBWIQVRN-UHFFFAOYSA-N,"2,5-Dihydroxybenzaldehyde",O=Cc1cc(O)ccc1O,c1cc(c(cc1O)C=O)O,OC=1C=CC(=C(C1)C=O)O,-1.0002
CLJDUFMUISGSEC-UHFFFAOYSA-N,"sodium 1,4-bis[(4-methylpentan-2-yl)oxy]-1,4-dioxobutane-2-sulfonate",CC(C)CC(C)OC(=O)CC(C(=O)OC(C)CC(C)C)S(=O)(=O)O,CC(C)CC(C)OC(=O)CC(C(=O)OC(C)CC(C)C)S(=O)(=O)O,CC(C)CC(C)OC(=O)CC(C(=O)OC(C)CC(C)C)S(=O)(=O)O,0.109612968
CLJUPSQCFBYRDR-UHFFFAOYSA-N,"Butanedioic acid, 2-ethyl-3-methyl-",CCC(C(=O)O)C(C)C(=O)O,CCC(C(C)C(=O)O)C(=O)O,C(=O)(C(C(C(=O)O)CC)C)O,0.0022
CLLVHWHUSNPTPA-UHFFFAOYSA-N,"Ethanamine, N-(2,2-diethoxyethyl)-2,2-diethoxy-N",CCOC(CN(CC(OCC)OCC)N=O)OCC,CCOC(CN(CC(OCC)OCC)N=O)OCC,N(N=O)(CC(OCC)OCC)CC(OCC)OCC,-1.6059999999999999
CLPDGZLMLHDCOY-UHFFFAOYSA-N,N-(3-oxo-1H-2-benzofuran-5-yl)acetamide,CC(=O)Nc1ccc2c(c1)C(=O)OC2,CC(=O)Nc1ccc2c(c1)C(=O)OC2,CC(=O)NC1=CC2=C(C=C1)COC2=O,-2.6
CLPFREPZDLOUQD-UHFFFAOYSA-N,,Cc1noc(C)c1-c1cc(C(N)=O)c(NC(N)=O)s1,Cc1c(c(on1)C)c2cc(c(s2)NC(=O)N)C(=O)N,CC1=NOC(=C1C2=CC(=C(S2)NC(=O)N)C(=O)N)C,-3.7958800000000004
CLQMBPJKHLGMQK-UHFFFAOYSA-N,Imazapyr,CC(C)C1(C)N=C(c2ncccc2C(=O)O)NC1=O,CC(C)C1(C(=O)NC(=N1)c2c(cccn2)C(=O)O)C,CC(C)C1(N=C(NC1=O)C=2N=CC=CC2C(=O)O)C,-1.364
CLVPAQTYKMLXSK-UHFFFAOYSA-N,,O=S(=O)(Nc1ncccn1)c1ccc(-c2cc3ccccc3o2)cc1,c1ccc2c(c1)cc(o2)c3ccc(cc3)S(=O)(=O)Nc4ncccn4,O=S(=O)(NC=1N=CC=CN1)C=2C=CC(=CC2)C3=CC=4C=CC=CC4O3,-5.5850267
CLYCGUXVCHOXIG-UHFFFAOYSA-N,Cimetidine,O=C(O)CC1CCCCC1NC1C(Cl)CCCC1Cl,C1CCC(C(C1)CC(=O)O)NC2C(CCCC2Cl)Cl,C1(CCCCC1NC2C(CCCC2Cl)Cl)CC(=O)O,-1.692
CLYJCNKAUUSNMP-UHFFFAOYSA-N,"sodium 2,5-dichloro-4-[4-[[2-[(ethylphenylamino)sulphonyl]phenyl]azo]-4,5-dihydro-3-methyl-5-oxo-1H-pyrazol-1-yl]benzenesulphonate",CC1=NN(c2cc(Cl)c(S(=O)(=O)O)cc2Cl)C(=O)C1/N=N/c1cccc(S(=O)(=O)NCCc2ccccc2)c1,CC1=NN(C(=O)C1/N=N/c2cccc(c2)S(=O)(=O)NCCc3ccccc3)c4cc(c(cc4Cl)S(=O)(=O)O)Cl,CC1=NN(C(=O)C1/N=N/C=2C=CC=C(C2)S(=O)(=O)NCCC=3C=CC=CC3)C=4C=C(C(=CC4Cl)S(=O)(=O)O)Cl,-2.429990498
CLYVDMAATCIVBF-UHFFFAOYSA-N,Pigment Red 224,O=C1OC(=O)c2ccc3c4ccc5c6c(ccc(c7ccc1c2c73)c64)C(=O)OC5=O,c1cc2c3c(ccc4c3c1c5ccc6c7c5c4ccc7C(=O)OC6=O)C(=O)OC2=O,O=C1OC(=O)C=2C=CC=3C=4C=CC5=C6C4C(=CC=C6C(=O)OC5=O)C=7C3C2C1=CC7,-5.593821332
CLZJIDPTNPRSOZ-UHFFFAOYSA-N,"Phthalic acid, 3-nitro-, 2-butyl ester",CCCCOC(=O)c1c(C(=O)O)cccc1[N+](=O)[O-],CCCCOC(=O)c1c(cccc1[N+](=O)[O-])C(=O)O,C1(=C(C=CC=C1C(=O)O)[N+](=O)[O-])C(=O)OCCCC,-2.719
CMAUJSNXENPPOF-UHFFFAOYSA-N,"N-(1,3-benzothiazol-2-ylsulfanyl)-N-cyclohexylcyclohexanamine",c1ccc2sc(SN(C3CCCCC3)C3CCCCC3)nc2c1,c1ccc2c(c1)nc(s2)SN(C3CCCCC3)C4CCCCC4,N=1C2=C(SC1SN(C3CCCCC3)C4CCCCC4)C=CC=C2,-6.789
CMBUPNCMYIHWEU-UHFFFAOYSA-N,,NC(=O)Nc1sc(-c2ccc(OC3CCCSC3)nc2)cc1C(N)=O,c1cc(ncc1c2cc(c(s2)NC(=O)N)C(=O)N)OC3CCCSC3,NC(=O)NC=1SC(=CC1C(=O)N)C=2C=CC(=NC2)OC3CCCSC3,-6.1804561
CMBYOWLFQAFZCP-UHFFFAOYSA-N,Hexyl dodecanoate,CCCCCCCCCCCC(=O)OCCCCCC,CCCCCCCCCCCC(=O)OCCCCCC,CCCCCCCCCCCC(=O)OCCCCCC,-6.755043921
CMCWWLVWPDLCRM-UHFFFAOYSA-N,1-phenylpyrazolidin-3-one,O=C1CCN(c2ccccc2)N1,c1ccc(cc1)N2CCC(=O)N2,O=C1CCN(N1)C=2C=CC=CC2,-1.144911651
CMDKPGRTAQVGFQ-UHFFFAOYSA-N,"2-Propenoic acid, 3-(4-methoxyphenyl)-, 2-ethoxy",CCOCCOC(=O)/C=C/c1ccc(OC)cc1,CCOCCOC(=O)/C=C/c1ccc(cc1)OC,CCOCCOC(=O)/C=C/C=1C=CC(=CC1)OC,-2.699
CMDUVYRYGHEIBA-UHFFFAOYSA-N,,O=CN(O)C(CCCc1ncccn1)CS(=O)(=O)N1CCC(Oc2ccc(F)cc2Cl)CC1,c1cnc(nc1)CCCC(CS(=O)(=O)N2CCC(CC2)Oc3ccc(cc3Cl)F)N(C=O)O,ON(C=O)C(CCCC=1N=CC=CN1)CS(=O)(=O)N2CCC(CC2)OC=3C=CC(=CC3Cl)F,-4.20412
CMEFYMOVWXSTKP-UHFFFAOYSA-N,,O=CN(O)C(CS(=O)(=O)N1CCN(c2ccc(Cl)cn2)CC1)c1ccc(Cl)c(Cl)c1,c1cc(c(cc1C(CS(=O)(=O)N2CCN(CC2)c3ccc(cn3)Cl)N(C=O)O)Cl)Cl,ON(C=O)C(CS(=O)(=O)N1CCN(CC1)C=2C=CC(=CN2)Cl)C=3C=CC(=C(C3)Cl)Cl,-5.8239087
CMGDVUCDZOBDNL-UHFFFAOYSA-N,"5-Methyl-1H-1,2,3-benzotriazole",Cc1cccc2n[nH]nc12,Cc1cccc2c1n[nH]n2,CC1=CC=CC=2C1=NNN2,-1.51698177
CMHGIGAIKRTGSZ-UHFFFAOYSA-N,,Cc1ccc(NC(=O)c2ccnc(N3CCOCC3)c2)cc1-n1cnc2ccc(N(C)CCCN(C)C)cc2c1=O,Cc1ccc(cc1n2cnc3ccc(cc3c2=O)N(C)CCCN(C)C)NC(=O)c4ccnc(c4)N5CCOCC5,CN(C)CCCN(C)C=1C=CC=2N=CN(C(=O)C2C1)C=3C=C(C=CC3C)NC(=O)C=4C=CN=C(C4)N5CCOCC5,-3.0
CMHWTSTXIAEBJQ-UHFFFAOYSA-N,,CCC(CO)(CO)NCC(O)COc1cc2ncnc(Nc3cnc(NC(=O)c4ccccc4)nc3)c2cc1OC,CCC(CO)(CO)NCC(COc1cc2c(cc1OC)c(ncn2)Nc3cnc(nc3)NC(=O)c4ccccc4)O,CCC(CO)(CO)NCC(O)COC=1C=C2N=CN=C(C2=CC1OC)NC=3C=NC(=NC3)NC(=O)C=4C=CC=CC4,-3.7958800000000004
CMJJEXJBJMHZRR-UHFFFAOYSA-N,,COc1cc2ncc(C#N)c(Nc3ccc(Oc4ccccc4OC(C)(C)C(=O)N(C)CCN(C)C)cc3)c2cc1OC,CC(C)(C(=O)N(C)CCN(C)C)Oc1ccccc1Oc2ccc(cc2)Nc3c4cc(c(cc4ncc3C#N)OC)OC,COC=1C=C2N=CC(=C(C2=CC1OC)NC=3C=CC(=CC3)OC=4C=CC=CC4OC(C)(C)C(=O)N(C)CCN(C)C)C#N,-5.3098039
CMNVTSUTIGPMCM-UHFFFAOYSA-N,,COCC1CCCN1CCCOc1cc2c(Nc3cccc(Cl)c3F)ncnc2cc1OC,COCC1CCCN1CCCOc2cc3c(cc2OC)ncnc3Nc4cccc(c4F)Cl,COCC1CCCN1CCCOC=2C=C3C(=NC=NC3=CC2OC)NC=4C=CC=C(C4F)Cl,-3.0043648
CMOGQJSVGDSZCX-UHFFFAOYSA-N,,COc1cc2c(Nc3cnc(NC(=O)c4ccc(F)c(Cl)c4)nc3)ncnc2cc1OCCCN(CCO)C1CCCCC1,COc1cc2c(cc1OCCCN(CCO)C3CCCCC3)ncnc2Nc4cnc(nc4)NC(=O)c5ccc(c(c5)Cl)F,COC=1C=C2C(=NC=NC2=CC1OCCCN(CCO)C3CCCCC3)NC=4C=NC(=NC4)NC(=O)C=5C=CC(=C(C5)Cl)F,-2.8860566000000003
CMOLPZZVECHXKN-UHFFFAOYSA-N,"2-NAPHTHYLAMINE-6,8-DISULFONIC ACID",Nc1ccc2cc(S(=O)(=O)O)cc(S(=O)(=O)O)c2c1,c1cc(cc2c1cc(cc2S(=O)(=O)O)S(=O)(=O)O)N,S(=O)(=O)(C1=CC(=CC2=C1C=C(C=C2)N)S(=O)(=O)O)O,-0.5176
CMSMOCZEIVJLDB-UHFFFAOYSA-N,"N,N-bis(2-chloroethyl)-2-hydroxy-1,3,2-oxazaphosphinan-2-ium-2-amine",O=P1(N(CCCl)CCCl)NCCCO1,C1CN[P+](OC1)(N(CCCl)CCCl)[O-],[P+]1(OCCCN1)(N(CCCl)CCCl)[O-],-0.815
CMVQZRLQEOAYSW-UHFFFAOYSA-N,"2,3-Dichloronitrobenzene",O=[N+]([O-])c1cccc(Cl)c1Cl,c1cc(c(c(c1)Cl)Cl)[N+](=O)[O-],O=[N+]([O-])C=1C=CC=C(C1Cl)Cl,-3.48
CMWCQQUYLPYOMY-UHFFFAOYSA-N,"3-(2-chloroethyl)-2-methyl-4H,6H,7H,8H,9H-pyrido[1,2-a]pyrimidin-4-one hydrochloride",Cc1nc2n(c(=O)c1CCCl)CCCC2,Cc1c(c(=O)n2c(n1)CCCC2)CCCl,CC1=C(C(=O)N2C(=N1)CCCC2)CCCl,0.57978346
CMWKITSNTDAEDT-UHFFFAOYSA-N,o-Nitrobenzaldehyde,O=Cc1ccccc1[N+](=O)[O-],c1ccc(c(c1)C=O)[N+](=O)[O-],[N+](=O)(C=1C(=CC=CC1)C=O)[O-],-1.814
CMWMXLFAODDISJ-UHFFFAOYSA-N,,N#Cc1ccccc1Nc1nc(Nc2ccc(S(=O)(=O)N(CCO)CCO)cc2)ncc1Cl,c1ccc(c(c1)C#N)Nc2c(cnc(n2)Nc3ccc(cc3)S(=O)(=O)N(CCO)CCO)Cl,OCCN(CCO)S(=O)(=O)C=1C=CC(=CC1)NC=2N=CC(=C(N2)NC=3C=CC=CC3C#N)Cl,-6.0362122000000005
CMWTZPSULFXXJA-UHFFFAOYSA-N,naproxen sodium,COc1ccc2cc([C@H](C)C(=O)O)ccc2c1,C[C@@H](c1ccc2cc(ccc2c1)OC)C(=O)O,O=C(O)[C@@H](C)C=1C=CC=2C=C(C=CC2C1)OC,-4.160813517
CMXRBHNFKLKRFS-UHFFFAOYSA-N,ethyl 3-bromo-4-hydroxybenzoate,CCOC(=O)c1ccc(O)c(Br)c1,CCOC(=O)c1ccc(c(c1)Br)O,CCOC(=O)C1=CC(=C(C=C1)O)Br,-3.3895
CNAFXFHUPGWEHG-UHFFFAOYSA-N,,COc1cc(CC(=O)NC(CCS(C)(=O)=O)C(=O)NC(CC(=O)O)c2ccc3c(c2)OCO3)cc2oc(Nc3ccccc3)nc12,COc1cc(cc2c1nc(o2)Nc3ccccc3)CC(=O)NC(CCS(=O)(=O)C)C(=O)NC(CC(=O)O)c4ccc5c(c4)OCO5,COC=1C=C(C=C2C1N=C(O2)NC=3C=CC=CC3)CC(=O)NC(CCS(=O)(=O)C)C(=O)NC(CC(=O)O)C=4C=CC5=C(C4)OCO5,-3.0268721000000003
CNBGNNVCVSKAQZ-UHFFFAOYSA-N,Benzydamine,CN(C)CCCOc1nn(Cc2ccccc2)c2ccccc12,CN(C)CCCOc1c2ccccc2n(n1)Cc3ccccc3,C=12N(N=C(C1C=CC=C2)OCCCN(C)C)CC3=CC=CC=C3,-3.78
CNCBPCXAUZPIGA-UHFFFAOYSA-N,1-(4-Chlorophenylsulfonyl)cycloheptanecarboxylic acid isopropyl ester,CC(C)OC(=O)C1(S(=O)(=O)c2ccc(Cl)cc2)CCCCCC1,CC(C)OC(=O)C1(CCCCCC1)S(=O)(=O)c2ccc(cc2)Cl,CC(C)OC(=O)C1(CCCCCC1)S(=O)(=O)C2=CC=C(C=C2)Cl,-5.52
CNDFAKHFJQFHGA-UHFFFAOYSA-N,"(5-acetyloxy-11-carbamoyl-5,6-dihydrobenzo[b][1]benzazepin-6-yl) acetate",CC(=O)OC1c2ccccc2N(C(N)=O)c2ccccc2C1OC(C)=O,CC(=O)OC1c2ccccc2N(c3ccccc3C1OC(=O)C)C(=O)N,N1(C2=C(C=CC=C2)C(C(C3=C1C=CC=C3)OC(=O)C)OC(=O)C)C(=O)N,-3.5495
CNDJEHZZDXTJAD-UHFFFAOYSA-N,,COCCOCCOc1cc2ncnc(Oc3cc(-c4ccccc4)[nH]n3)c2cc1OC,COCCOCCOc1cc2c(cc1OC)c(ncn2)Oc3cc([nH]n3)c4ccccc4,COCCOCCOC=1C=C2N=CN=C(C2=CC1OC)OC=3C=C(NN3)C=4C=CC=CC4,-5.1255182
CNEASHVQPRSTBN-UHFFFAOYSA-N,,CCN(C(=O)Cc1ccc(S(C)(=O)=O)cc1)C1CCN(CCC(OC(=O)NCCN2CCCC2)c2ccccc2)CC1,CCN(C1CCN(CC1)CCC(c2ccccc2)OC(=O)NCCN3CCCC3)C(=O)Cc4ccc(cc4)S(=O)(=O)C,CCN(C1CCN(CC1)CCC(OC(=O)NCCN2CCCC2)C=3C=CC=CC3)C(=O)CC=4C=CC(=CC4)S(=O)(=O)C,-2.60206
CNEQSCZRPCJALN-UHFFFAOYSA-N,,COc1cc2ncnc(Nc3ccc(F)c(Cl)c3)c2cc1OC1CC2CCC(C1)N2C,CN1C2CCC1CC(C2)Oc3cc4c(cc3OC)ncnc4Nc5ccc(c(c5)Cl)F,COC=1C=C2N=CN=C(C2=CC1OC3CC4CCC(C3)N4C)NC=5C=CC(=C(C5)Cl)F,-3.154902
CNEVNTZDQZVZGP-UHFFFAOYSA-N,methyl 2-(4-bromobenzenesulfonyl)acetate;  2-(4-bromobenzenesulfonyl)acetic acid methyl ester,COC(=O)CS(=O)(=O)c1ccc(Br)cc1,COC(=O)CS(=O)(=O)c1ccc(cc1)Br,COC(=O)CS(=O)(=O)C1=CC=C(C=C1)Br,-2.48
CNFMJLVJDNGPHR-UHFFFAOYSA-N,,CC(C)(C)C(O)/C(=C\C1CCCCC1)n1cncn1,CC(C)(C)C(/C(=C\C1CCCCC1)/n2cncn2)O,N=1C=NN(C1)/C(=C/C2CCCCC2)/C(C(C)(C)C)O,2.412
CNFPQCJWTUXRKG-UHFFFAOYSA-N,,Cc1c(-c2cc3ccccc3[nH]2)sc(N)c1C(N)=O,Cc1c(c(sc1c2cc3ccccc3[nH]2)N)C(=O)N,CC1=C(SC(=C1C(=O)N)N)C2=CC=3C=CC=CC3N2,-4.7695511
CNFQIZJMIVHXMW-UHFFFAOYSA-N,,COC1CN(C)C(=O)c2cc(NC(=O)Nc3ccc(Cl)cc3)ccc2OCC(C)N(C(=O)Nc2c(C)noc2C)CC1C,Cc1c(c(on1)C)NC(=O)N2CC(C(CN(C(=O)c3cc(ccc3OCC2C)NC(=O)Nc4ccc(cc4)Cl)C)OC)C,COC1CN(C(=O)C2=CC(=CC=C2OCC(N(CC1C)C(=O)NC3=C(ON=C3C)C)C)NC(=O)NC4=CC=C(C=C4)Cl)C,-4.328
CNGDZXAWOIPFFX-UHFFFAOYSA-N,4-(4-methoxybenzoyl)thiophene-2-sulfonamide,COc1ccc(C(=O)c2csc(S(N)(=O)=O)c2)cc1,COc1ccc(cc1)C(=O)c2cc(sc2)S(=O)(=O)N,S(=O)(=O)(N)C=1SC=C(C1)C(=O)C=2C=CC(=CC2)OC,-4.473
CNGMKNSMKFUGDP-UHFFFAOYSA-N,,O=C(NCCCN1CCCC1=O)c1cccc(Nc2ncc(Br)c(Nc3ccccc3)n2)c1,c1ccc(cc1)Nc2c(cnc(n2)Nc3cccc(c3)C(=O)NCCCN4CCCC4=O)Br,BrC=1C=NC(=NC1NC=2C=CC=CC2)NC=3C=CC=C(C3)C(=O)NCCCN4CCCC4=O,-4.6197888
CNHAOFCSYAWTNZ-UHFFFAOYSA-N,,COC(=O)c1ccc(Cl)cc1NS(=O)(=O)c1ccc(Cc2ccc(S(=O)(=O)O)cc2)cc1,COC(=O)c1ccc(cc1NS(=O)(=O)c2ccc(cc2)Cc3ccc(cc3)S(=O)(=O)O)Cl,C=1C(=C(C=C(C1)Cl)NS(=O)(=O)C=2C=CC(=CC2)CC=3C=CC(=CC3)S(=O)(=O)O)C(=O)OC,-2.5683382999999997
CNHNYKPEKKZWNU-UHFFFAOYSA-N,,COc1cc2c(Nc3ccc(OCc4cccc(C#N)c4)nc3)ncnc2cc1OCC1CCN(C)CC1,CN1CCC(CC1)COc2cc3c(cc2OC)c(ncn3)Nc4ccc(nc4)OCc5cccc(c5)C#N,COC=1C=C2C(=NC=NC2=CC1OCC3CCN(CC3)C)NC=4C=CC(=NC4)OCC=5C=CC=C(C5)C#N,-4.6777807000000005
CNJRPYFBORAQAU-UHFFFAOYSA-N,1-ETHOXY-2-(2-METHOXYETHOXY)ETHANE,CCOCCOCCOC,CCOCCOCCOC,CCOCCOCCOC,0.829122968
CNKHSLKYRMDDNQ-UHFFFAOYSA-N,HALOFENOZIDE,CC(C)(C)N(NC(=O)c1ccc(Cl)cc1)C(=O)c1ccccc1,CC(C)(C)N(C(=O)c1ccccc1)NC(=O)c2ccc(cc2)Cl,CC(C)(C)N(NC(=O)C=1C=CC(=CC1)Cl)C(=O)C=2C=CC=CC2,-4.4402
CNPGMVAEOUQDBN-UHFFFAOYSA-N,"(8R,9S,13S,14S,17S)-13-ethyl-3-methoxy-6,7,8,9,11,12,14,15,16,17-decahydrocyclopenta[a]phenanthren-17-ol",CC[C@]12CC[C@@H]3c4ccc(OC)cc4CC[C@H]3[C@@H]1CC[C@@H]2O,CC[C@]12CC[C@@H]3c4ccc(cc4CC[C@H]3[C@@H]1CC[C@@H]2O)OC,CC[C@]12CC[C@H]3[C@H]([C@@H]1CC[C@@H]2O)CCC4=C3C=CC(=C4)OC,-4.875850327
CNRNYORZJGVOSY-UHFFFAOYSA-N,"2,5-Diphenyl-1,3-oxazole",c1ccc(-c2cnc(-c3ccccc3)o2)cc1,c1ccc(cc1)c2cnc(o2)c3ccccc3,O1C(=CN=C1C=2C=CC=CC2)C=3C=CC=CC3,-5.553105147999999
CNRPDCKHCGUKDK-UHFFFAOYSA-N,"1,8-bis(phenylsulfanyl)-9,10-dihydroanthracene-9,10-dione",O=C1c2cccc(Sc3ccccc3)c2C(=O)c2c(Sc3ccccc3)cccc21,c1ccc(cc1)Sc2cccc3c2C(=O)c4c(cccc4Sc5ccccc5)C3=O,O=C1C=2C=CC=C(C2C(=O)C3=C1C=CC=C3SC=4C=CC=CC4)SC=5C=CC=CC5,-5.517167522
CNWSFCOMMJDSAO-UHFFFAOYSA-N,,COc1cc2ncnc(Nc3ccc(F)c(Cl)c3)c2cc1OCCCN1CCCCCC1,COc1cc2c(cc1OCCCN3CCCCCC3)c(ncn2)Nc4ccc(c(c4)Cl)F,COC=1C=C2N=CN=C(C2=CC1OCCCN3CCCCCC3)NC=4C=CC(=C(C4)Cl)F,-3.2596373
CNXZLZNEIYFZGU-UHFFFAOYSA-N,"N-(4-Amino-2,5-diethoxyphenyl)benzamide",CCOc1cc(NC(=O)c2ccccc2)c(OCC)cc1N,CCOc1cc(c(cc1NC(=O)c2ccccc2)OCC)N,CCOC=1C=C(C(=CC1N)OCC)NC(=O)C=2C=CC=CC2,-2.4058785990000002
COBDXEFJORKNSE-UHFFFAOYSA-N,Cephalothin,O=C(O)C1=CN(C2CC2)C2CC(N3CCNCC3)C(F)CC2C1=O,C1CC1N2C=C(C(=O)C3C2CC(C(C3)F)N4CCNCC4)C(=O)O,O=C(C1=CN(C2CC(C(CC2C1=O)F)N3CCNCC3)C4CC4)O,-2.938
COBKAOXSLALTLT-UHFFFAOYSA-N,"Spiro-5,5-decamethylenebarbituric acid",O=C1NC(=O)C2(CCCCCCCCCC2)C(=O)N1,C1CCCCCC2(CCCC1)C(=O)NC(=O)NC2=O,O=C1NC(=O)C2(CCCCCCCCCC2)C(=O)N1,-4.59
COBPKKZHLDDMTB-UHFFFAOYSA-N,TRIETHYLENE GLYCOL BUTYL ETHER,CCCCOCCOCCOCCO,CCCCOCCOCCOCCO,OCCOCCOCCOCCCC,0.6855
COCAVGOWOPNYOD-UHFFFAOYSA-N,Naproxen carbamoylmethyl ester;  NAPROXEN  ESTER Va,COc1ccc2cc(C(C)C(=O)OCC(N)=O)ccc2c1,CC(c1ccc2cc(ccc2c1)OC)C(=O)OCC(=O)N,COC1=CC=C2C=C(C=CC2=C1)C(C)C(=O)OCC(=O)N,-3.93
COCLLEMEIJQBAG-UHFFFAOYSA-N,8-Methylnonyl methacrylate,C=C(C)C(=O)OCCCCCCCC(C)C,CC(C)CCCCCCCOC(=O)C(=C)C,CC(C)CCCCCCCOC(=O)C(=C)C,-6.056
COESHZUDRKCEPA-UHFFFAOYSA-N,"L-Tyrosine, 3,5-dibromo-",N[C@@H](Cc1cc(Br)c(O)c(Br)c1)C(=O)O,c1c(cc(c(c1Br)O)Br)C[C@@H](C(=O)O)N,N[C@@H](CC=1C=C(C(=C(C1)Br)O)Br)C(=O)O,-1.9280000000000002
COGWTYZJZRNZQG-UHFFFAOYSA-N,RTI 11,Cc1ccc2c(c1)C(=O)N(C)c1cc(N)ccc1O2,Cc1ccc2c(c1)C(=O)N(c3cc(ccc3O2)N)C,O1C=2C=CC(=CC2N(C(=O)C3=C1C=CC(=C3)C)C)N,-3.928
COHYTHOBJLSHDF-UHFFFAOYSA-N,"2,2'-biindole-3,3'(1H,1'H)-dione",O=C1/C(=C2\Nc3ccccc3C2=O)Nc2ccccc21,c1ccc2c(c1)C(=O)/C(=C\3/C(=O)c4ccccc4N3)/N2,O=C1/C(=C\2/NC=3C=CC=CC3C2=O)/NC4=C1C=CC=C4,-6.71988765
COLADWIMSLKQPM-UHFFFAOYSA-N,,COc1cc2c(Nc3cnc(NC(=O)c4cccc(Cl)c4)nc3)ncnc2cc1OCCCN(C)CCO,CN(CCCOc1cc2c(cc1OC)c(ncn2)Nc3cnc(nc3)NC(=O)c4cccc(c4)Cl)CCO,COC=1C=C2C(=NC=NC2=CC1OCCCN(C)CCO)NC=3C=NC(=NC3)NC(=O)C=4C=CC=C(C4)Cl,-3.5228787000000006
COLNVLDHVKWLRT-UHFFFAOYSA-N,Phenylalanine,NC(Cc1ccccc1)C(=O)O,c1ccc(cc1)CC(C(=O)O)N,OC(=O)C(N)CC1=CC=CC=C1,-0.7882
CONWAEURSVPLRM-UHFFFAOYSA-N,lactofen;  cobra,CCOC(=O)C(C)OC(=O)c1cc(Oc2ccc(C(F)(F)F)cc2Cl)ccc1[N+](=O)[O-],CCOC(=O)C(C)OC(=O)c1cc(ccc1[N+](=O)[O-])Oc2ccc(cc2Cl)C(F)(F)F,CCOC(=O)C(C)OC(=O)C=1C=C(C=CC1[N+](=O)[O-])OC=2C=CC(=CC2Cl)C(F)(F)F,-6.662000000000001
COQWGWFPDSGFJS-UHFFFAOYSA-N,disodium 2-hexadecyl-3-(2-sulfonatophenoxy)benzenesulfonate,CCCCCCCCCCCCCCCCc1c(Oc2ccccc2S(=O)(=O)O)cccc1S(=O)(=O)O,CCCCCCCCCCCCCCCCc1c(cccc1S(=O)(=O)O)Oc2ccccc2S(=O)(=O)O,CCCCCCCCCCCCCCCCC=1C(=CC=CC1S(=O)(=O)O)OC=2C=CC=CC2S(=O)(=O)O,0.22278267699999998
COSQYHQHMYBDLB-UHFFFAOYSA-N,,Cc1ncc(-c2ccnc(Nc3ccc(S(=O)(=O)NCCS(C)(=O)=O)cc3)n2)n1C,Cc1ncc(n1C)c2ccnc(n2)Nc3ccc(cc3)S(=O)(=O)NCCS(=O)(=O)C,CC1=NC=C(N1C)C=2C=CN=C(N2)NC=3C=CC(=CC3)S(=O)(=O)NCCS(=O)(=O)C,-4.39794
COSZGCBTURPTLV-UHFFFAOYSA-N,"Sulfanilamide, N1-(4-ethyl-2-pyrimidinyl)-",CCc1ccnc(NS(=O)(=O)c2ccc(N)cc2)n1,CCc1ccnc(n1)NS(=O)(=O)c2ccc(cc2)N,S(=O)(=O)(NC=1N=C(C=CN1)CC)C2=CC=C(C=C2)N,-3.2089999999999996
COTRONQEHWUCRV-UHFFFAOYSA-N,"ACETAMIDE, 2-(BENZOYLOXY)-N,N-DIPROPYL-",CCCN(CCC)C(=O)COC(=O)c1ccccc1,CCCN(CCC)C(=O)COC(=O)c1ccccc1,CCCN(CCC)C(=O)COC(=O)C=1C=CC=CC1,-2.3791
COUMKTRLCGRAAA-UHFFFAOYSA-N,"Sulfuric acid, mono-C12-18-alkyl esters, sodium salts",CCCCCCCCCCCCCCCOS(=O)(=O)O,CCCCCCCCCCCCCCCOS(=O)(=O)O,CCCCCCCCCCCCCCCOS(=O)(=O)O,-1.042
COVFEVWNJUOYRL-UHFFFAOYSA-N,"digallic acid;  3,4-dihydroxy-5-[(3,4,5-trihydroxybenzoyl)oxy]benzoic acid",O=C(O)c1cc(O)c(O)c(OC(=O)c2cc(O)c(O)c(O)c2)c1,c1c(cc(c(c1O)O)O)C(=O)Oc2cc(cc(c2O)O)C(=O)O,OC(=O)C=1C=C(C(=C(C1)OC(=O)C=2C=C(C(=C(C2)O)O)O)O)O,-2.8089999999999997
COVGJJNWQYZMTJ-UHFFFAOYSA-N,,CCn1c2ccccc2c2cc(Nc3ccc(C)nc3)ccc21,CCn1c2ccccc2c3c1ccc(c3)Nc4ccc(nc4)C,CCN1C=2C=CC=CC2C3=C1C=CC(=C3)NC=4C=CC(=NC4)C,-5.79588
COVZYZSDYWQREU-UHFFFAOYSA-N,"busulfan;  busulphan;  1,4-di(methylsulfonyloxy)butane",CS(=O)(=O)OCCCCOS(C)(=O)=O,CS(=O)(=O)OCCCCOS(=O)(=O)C,CS(=O)(=O)OCCCCOS(=O)(=O)C,-2.27
COWHVSLHGUONGN-UHFFFAOYSA-N,"2,4(1H,3H)-Quinazolinedione, 6,8-dinitro-",O=c1[nH]c(=O)c2cc([N+](=O)[O-])cc([N+](=O)[O-])c2[nH]1,c1c(cc(c2c1c(=O)[nH]c(=O)[nH]2)[N+](=O)[O-])[N+](=O)[O-],O=[N+]([O-])C=1C=C2C(=O)NC(=O)NC2=C(C1)[N+](=O)[O-],-3.20585
COYBRKAVBMYYSF-UHFFFAOYSA-N,Cloquintocet-mexyl,CCCCCC(C)OC(=O)COc1ccc(Cl)c2cccnc12,CCCCCC(C)OC(=O)COc1ccc(c2c1nccc2)Cl,ClC1=C2C(N=CC=C2)=C(C=C1)OCC(=O)OC(CCCCC)C,-5.755134386
CPBJWZMYYRQJOI-UHFFFAOYSA-N,"5-Norbornene-2,3-dicarboxylic acid, dimethyl est",COC(=O)C1CC2(C(=O)OC)C=CC1C2,COC(=O)C1CC2(CC1C=C2)C(=O)OC,C12(CC(C(C1)C=C2)C(=O)OC)C(=O)OC,-1.209
CPCDHOPIVGVJIT-UHFFFAOYSA-N,,COc1cc2c(Nc3cnc(OCc4cccc(F)c4)nc3)ncnc2cc1OCCCNC1(CO)CCCC1,COc1cc2c(cc1OCCCNC3(CCCC3)CO)ncnc2Nc4cnc(nc4)OCc5cccc(c5)F,COC=1C=C2C(=NC=NC2=CC1OCCCNC3(CCCC3)CO)NC=4C=NC(=NC4)OCC=5C=CC=C(C5)F,-4.6695862
CPDDCIYPNIRWBG-UHFFFAOYSA-N,"3-Pyridinecarboxylic acid, nonyl ester",CCCCCCCCCOC(=O)c1cccnc1,CCCCCCCCCOC(=O)c1cccnc1,CCCCCCCCCOC(=O)C=1C=CC=NC1,-3.0959
CPEPWESLFZVUEP-UHFFFAOYSA-N,4-Hexylbenzoic acid,CCCCCCc1ccc(C(=O)O)cc1,CCCCCCc1ccc(cc1)C(=O)O,CCCCCCC1=CC=C(C=C1)C(=O)O,-3.65
CPEXFJVZFNYXGU-UHFFFAOYSA-N,"2,4,6-Trihydroxybenzophenone",O=C(c1ccccc1)c1c(O)cc(O)cc1O,c1ccc(cc1)C(=O)c2c(cc(cc2O)O)O,OC=1C=C(C(=C(C1)O)C(=O)C=2C=CC=CC2)O,-1.8708
CPFOVQUXDSDLBH-UHFFFAOYSA-N,,CN1CCC(Oc2cccc3ncnc(Nc4ccc5[nH]cc(Br)c5c4F)c23)CC1,CN1CCC(CC1)Oc2cccc3c2c(ncn3)Nc4ccc5c(c4F)c(c[nH]5)Br,CN1CCC(CC1)OC=2C=CC=C3C2C(=NC=N3)NC=4C=CC=5NC=C(C5C4F)Br,-5.8601209
CPGPAVAKSZHMBP-UHFFFAOYSA-N,9-Methylanthracene,Cc1c2ccccc2cc2ccccc12,Cc1c2ccccc2cc3c1cccc3,CC=1C=2C=CC=CC2C=C3C1C=CC=C3,-5.89
CPIVYSAVIPTCCX-UHFFFAOYSA-N,4-METHYL-2-PENTYL ACETATE,CC(=O)OC(C)CC(C)C,CC(C)CC(C)OC(=O)C,CC(CC(C)C)OC(=O)C,-2.045
CPJSUEIXXCENMM-UHFFFAOYSA-N,phenacetin;  4-ethoxyacetanilide;  4-acetophenetidide,CCOc1ccc(NC(C)=O)cc1,CCOc1ccc(cc1)NC(=O)C,CCOC=1C=CC(=CC1)NC(=O)C,-2.36776575
CPKDANCLQNSPCM-UHFFFAOYSA-N,,COCCN1CCC(Oc2cc3c(Nc4cccc(Cl)c4)ncnc3cc2OC)CC1,COCCN1CCC(CC1)Oc2cc3c(cc2OC)ncnc3Nc4cccc(c4)Cl,COCCN1CCC(CC1)OC=2C=C3C(=NC=NC3=CC2OC)NC=4C=CC=C(C4)Cl,-4.5883803
CPKKEYBKBQQSMS-UHFFFAOYSA-N,,O=C(O)CC(COc1cccc(NC(=O)Cc2ccc3nc(Nc4ccccc4)oc3c2)c1)n1ccc(Br)n1,c1ccc(cc1)Nc2nc3ccc(cc3o2)CC(=O)Nc4cccc(c4)OCC(CC(=O)O)n5ccc(n5)Br,OC(=O)CC(COC=1C=CC=C(C1)NC(=O)CC=2C=CC=3N=C(OC3C2)NC=4C=CC=CC4)N5C=CC(=N5)Br,-2.853872
CPKMYVLHYLGADM-UHFFFAOYSA-N,"Propanoic acid, 2-hydroxy-, 1-methyl-2-oxo-2-(2-",C=CCOC(=O)C(C)OC(=O)C(C)O,CC(C(=O)OC(C)C(=O)OCC=C)O,CC(O)C(=O)OC(C)C(=O)OCC=C,-0.6826
CPMZWWWXIWHTMU-UHFFFAOYSA-N,Molecule1132,CC1COC2CC3(C)C(CC4C5C=C6CC(O)CCC6(C)CC5CCC43C)OC2C1,CC1CC2C(CC3(C(O2)CC4C3(CCC5C4C=C6CC(CCC6(C5)C)O)C)C)OC1,O1C2C(CC3C1CC(CO3)C)(C4(C(C2)C5C(CC4)CC6(C(=C5)CC(CC6)O)C)C)C,-7.32
CPNGPNLZQNNVQM-UHFFFAOYSA-N,Pteridine,c1cnc2ncncc2n1,c1cnc2c(n1)cncn2,N=1C=2N=CC=NC2C=NC1,0.02
CPOARMKZCBEUFO-UHFFFAOYSA-N,,COCCN(C)CCCOc1cc2ncnc(Nc3ccc(F)c(Cl)c3)c2cc1OC,CN(CCCOc1cc2c(cc1OC)c(ncn2)Nc3ccc(c(c3)Cl)F)CCOC,COCCN(C)CCCOC=1C=C2N=CN=C(C2=CC1OC)NC=3C=CC(=C(C3)Cl)F,-3.5228787000000006
CPRWWXKLQNLTSZ-UHFFFAOYSA-N,"1H-Purine-2,6-dione, 7-butyl-3,7-dihydro-1,3-dim",CCCCn1cnc2c1c(=O)n(C)c(=O)n2C,CCCCn1cnc2c1c(=O)n(c(=O)n2C)C,CCCCN1C=NC2=C1C(=O)N(C(=O)N2C)C,-1.80695
CPSKWYFINZRIEO-UHFFFAOYSA-N,,CCC(CO)Nc1nc(SCc2cccc(F)c2F)nc2[nH]c(=O)sc12,CCC(CO)Nc1c2c([nH]c(=O)s2)nc(n1)SCc3cccc(c3F)F,FC=1C(=C(C=CC1)CSC=2N=C3C(SC(=O)N3)=C(N2)NC(CC)CO)F,-6.220166900000001
CPTLOUGZYHDMCS-UHFFFAOYSA-N,,COc1cc2c(Oc3ccc4[nH]c(C)cc4c3F)ncnc2cc1OCC(O)CN1CCCCC1,Cc1cc2c([nH]1)ccc(c2F)Oc3c4cc(c(cc4ncn3)OCC(CN5CCCCC5)O)OC,COC=1C=C2C(=NC=NC2=CC1OCC(O)CN3CCCCC3)OC=4C=CC=5NC(=CC5C4F)C,-4.841082900000001
CPVAVPVILZUTBT-UHFFFAOYSA-N,,Cc1cc(COc2cc(OC(C)C)cc(C(=O)Nc3ccc(C(=O)O)cn3)c2)no1,Cc1cc(no1)COc2cc(cc(c2)OC(C)C)C(=O)Nc3ccc(cn3)C(=O)O,CC(C)OC=1C=C(C=C(C1)C(=O)NC=2C=CC(=CN2)C(=O)O)OCC=3C=C(ON3)C,-3.5850267
CPZPRNCZSMTHDP-UHFFFAOYSA-N,,CNS(=O)(=O)c1ccc(Nc2nc(-c3cccc(F)c3)cs2)cc1,CNS(=O)(=O)c1ccc(cc1)Nc2nc(cs2)c3cccc(c3)F,CNS(=O)(=O)C=1C=CC(=CC1)NC2=NC(=CS2)C=3C=CC=C(C3)F,-6.161150900000001
CPZSDIBWRZWCEW-UHFFFAOYSA-N,,O=C(O)CC(/C=C/c1cccc(NC(=O)Cc2ccc3nc(Nc4ccccc4)oc3c2)c1)c1ccc2c(c1)OCO2,c1ccc(cc1)Nc2nc3ccc(cc3o2)CC(=O)Nc4cccc(c4)/C=C/C(CC(=O)O)c5ccc6c(c5)OCO6,OC(=O)CC(/C=C/C=1C=CC=C(C1)NC(=O)CC=2C=CC=3N=C(OC3C2)NC=4C=CC=CC4)C=5C=CC6=C(C5)OCO6,-4.5352904999999994
CQCBLMVTFNLFNB-UHFFFAOYSA-N,,COc1cc2c(Nc3cnc(C(=O)Nc4ccccn4)nc3)ncnc2cc1OCCCN1CCOCC1,COc1cc2c(cc1OCCCN3CCOCC3)ncnc2Nc4cnc(nc4)C(=O)Nc5ccccn5,COC=1C=C2C(=NC=NC2=CC1OCCCN3CCOCC3)NC=4C=NC(=NC4)C(=O)NC=5C=CC=CN5,-5.920818799999999
CQCFISPMNREOQX-UHFFFAOYSA-N,"Butanedioic acid, tetraethyl-",CCC(CC)(C(=O)O)C(CC)(CC)C(=O)O,CCC(CC)(C(=O)O)C(CC)(CC)C(=O)O,CCC(CC)(C(=O)O)C(CC)(CC)C(=O)O,-2.9642
CQDACZMTOUKXOM-UHFFFAOYSA-N,,CCN(CCO)CCCOc1cc2ncnc(Nc3cnc(OCc4cccc(F)c4)nc3)c2cc1OC,CCN(CCCOc1cc2c(cc1OC)c(ncn2)Nc3cnc(nc3)OCc4cccc(c4)F)CCO,CCN(CCO)CCCOC=1C=C2N=CN=C(C2=CC1OC)NC=3C=NC(=NC3)OCC=4C=CC=C(C4)F,-4.1518109
CQEBIGVQAVNPFP-UHFFFAOYSA-N,4-[3-[(2-methylpropylamino)methyl]benzoyl]thiophene-2-sulfonamide,CC(C)CNCc1cccc(C(=O)c2csc(S(N)(=O)=O)c2)c1,CC(C)CNCc1cccc(c1)C(=O)c2cc(sc2)S(=O)(=O)N,CC(C)CNCC1=CC=CC(=C1)C(=O)C2=CSC(=C2)S(=O)(=O)N,-2.048