inchikey,Name,SMILES_stand,SMILES,kekSmiles,logS
DSBMZQSBWWASSE-UHFFFAOYSA-N,"6H-Purin-6-one, 2-chloro-1,7-dihydro-7-methyl-,",Cn1cnc2nc(Cl)nc(NN)c21,Cn1cnc2c1c(nc(n2)Cl)NN,CN1C=NC2=C1C(=NC(=N2)Cl)NN,-1.14285
DSEWNTPSPHVWSM-UHFFFAOYSA-N,,COc1cc2c(Nc3cnc(NC(=O)CCC4CC4)nc3)ncnc2cc1OCCCN1CCCC1,COc1cc2c(cc1OCCCN3CCCC3)ncnc2Nc4cnc(nc4)NC(=O)CCC5CC5,COC=1C=C2C(=NC=NC2=CC1OCCCN3CCCC3)NC=4C=NC(=NC4)NC(=O)CCC5CC5,-2.60206
DSFHFYRXLXZBAP-UHFFFAOYSA-N,Warfarin,CC(=O)CC(C1=C(O)C2CCCCC2OC1=O)C1CCCCC1,CC(=O)CC(C1CCCCC1)C2=C(C3CCCCC3OC2=O)O,O=C1C(=C(C2CCCCC2O1)O)C(CC(=O)C)C3CCCCC3,-4.784
DSKJPMWIHSOYEA-UHFFFAOYSA-N,Bupirimate,CCCCc1c(C)nc(NCC)nc1OS(=O)(=O)N(C)C,CCCCc1c(nc(nc1OS(=O)(=O)N(C)C)NCC)C,S(=O)(=O)(OC=1C(=C(N=C(N1)NCC)C)CCCC)N(C)C,-4.16
DSKYSDCYIODJPC-UHFFFAOYSA-N,"2-butyl-2-ethylpropane-1,3-diol",CCCCC(CC)(CO)CO,CCCCC(CC)(CO)CO,CCCCC(CC)(CO)CO,-1.260167168
DSLZVSRJTYRBFB-UHFFFAOYSA-N,L-Altraric acid,O=C(O)[C@H](O)[C@@H](O)[C@@H](O)[C@@H](O)C(=O)O,[C@H]([C@H]([C@H](C(=O)O)O)O)([C@H](C(=O)O)O)O,O[C@H]([C@H](O)[C@H](O)C(=O)O)[C@H](O)C(=O)O,-0.0613
DSNHSQKRULAAEI-UHFFFAOYSA-N,p-diethylbenzene,CCc1ccc(CC)cc1,CCc1ccc(cc1)CC,CCC=1C=CC(=CC1)CC,-3.75
DSRNRYQBBJQVCW-UHFFFAOYSA-N,"metoxuron;  3-(3-chloro-4-methoxyphenyl)-1,1-dimethylurea",COc1ccc(NC(=O)N(C)C)cc1Cl,CN(C)C(=O)Nc1ccc(c(c1)Cl)OC,ClC=1C(=CC=C(C1)NC(=O)N(C)C)OC,-2.5639999999999996
DSRZQIDFVZUCGM-UHFFFAOYSA-N,Octyl 3-bromo-4-hydroxybenzoate,CCCCCCCCOC(=O)c1ccc(O)c(Br)c1,CCCCCCCCOC(=O)c1ccc(c(c1)Br)O,CCCCCCCCOC(=O)C1=CC(=C(C=C1)O)Br,-4.519
DSSBPJGCVLMCKK-UHFFFAOYSA-N,disodium 3-[(E)-2-{4-[(E)-2-(7-amino-1-hydroxy-3-sulfonatonaphthalen-2-yl)diazen-1-yl]naphthalen-1-yl}diazen-1-yl]-2-hydroxybenzoate,Nc1ccc2cc(S(=O)(=O)O)c(/N=N/c3ccc(/N=N/c4cccc(C(=O)O)c4O)c4ccccc34)c(O)c2c1,c1ccc2c(c1)c(ccc2/N=N/c3c(cc4ccc(cc4c3O)N)S(=O)(=O)O)/N=N/c5cccc(c5O)C(=O)O,NC=1C=CC=2C=C(C(=C(C2C1)O)/N=N/C=3C=CC(=C4C3C=CC=C4)/N=N/C=5C=CC=C(C5O)C(=O)O)S(=O)(=O)O,-2.7869102260000003
DSSKDXUDARIMTR-UHFFFAOYSA-N,"1,4-dimethyl 2-aminobenzene-1,4-dicarboxylate",COC(=O)c1ccc(C(=O)OC)c(N)c1,COC(=O)c1ccc(c(c1)N)C(=O)OC,COC(=O)C=1C=CC(=C(C1)N)C(=O)OC,-3.718751883
DSSOAANULUSBGQ-UHFFFAOYSA-N,"D-Gluconic acid, hydrazide",NNC(=O)C(O)C(O)C(O)C(O)CO,C(C(C(C(C(C(=O)NN)O)O)O)O)O,NNC(=O)C(O)C(O)C(O)C(O)CO,-0.4985
DSSWXXHIOIZJIG-UHFFFAOYSA-N,,O=C(O)CCCOc1cccc(COC(=O)Nc2ccc(NC(=O)Nc3ccccc3)cc2)c1,c1ccc(cc1)NC(=O)Nc2ccc(cc2)NC(=O)OCc3cccc(c3)OCCCC(=O)O,OC(=O)CCCOC=1C=CC=C(C1)COC(=O)NC=2C=CC(=CC2)NC(=O)NC=3C=CC=CC3,-4.5850267
DSSYKIVIOFKYAU-UHFFFAOYSA-N,"camphor;  1,7,7-trimethylbicyclo[2.2.1]heptan-2-one",CC1(C)[C@H]2CC[C@@]1(C)C(=O)C2,CC1([C@H]2CC[C@]1(C(=O)C2)C)C,O=C1CC2CCC1(C2(C)C)C,-1.992880795
DSSZGRGPNZUAGT-UHFFFAOYSA-N,,CN(C)C(=O)C(Cc1ccccc1)NC(=O)c1cc2scc(Cl)c2[nH]1,CN(C)C(=O)C(Cc1ccccc1)NC(=O)c2cc3c([nH]2)c(cs3)Cl,CN(C)C(=O)C(CC=1C=CC=CC1)NC(=O)C2=CC=3SC=C(C3N2)Cl,-4.537602
DSTPUJAJSXTJHM-UHFFFAOYSA-N,"Phenol, 4-methyl-2-(1-methylethyl)-",Cc1ccc(O)c(C(C)C)c1,Cc1ccc(c(c1)C(C)C)O,C1(=C(C=CC(=C1)C)O)C(C)C,-1.9569999999999999
DSUNWRHRAQZLNC-UHFFFAOYSA-N,"3-(2-hydroxyethyl)-1,2,3,4-tetrahydroquinazoline-2,4-dione",O=c1[nH]c2ccccc2c(=O)n1CCO,c1ccc2c(c1)c(=O)n(c(=O)[nH]2)CCO,OCCN1C(=O)NC=2C=CC=CC2C1=O,-3.112946822
DSUPUOGOCIFZBG-UHFFFAOYSA-N,N-Phenylphthalamic acid,O=C(O)c1ccccc1C(=O)Nc1ccccc1,c1ccc(cc1)NC(=O)c2ccccc2C(=O)O,OC(=O)C=1C=CC=CC1C(=O)NC=2C=CC=CC2,-4.081
DSVGICPKBRQDDX-UHFFFAOYSA-N,"1,3-PROPANEDIOL, DIACETATE",CC(=O)OCCCOC(C)=O,CC(=O)OCCCOC(=O)C,CC(=O)OCCCOC(=O)C,-0.2046
DSVOTYIOPGIVPP-UHFFFAOYSA-N,"3,4-DICHLOROBENZYL METHYLCARBAMATE",CNC(=O)OCc1ccc(Cl)c(Cl)c1,CNC(=O)OCc1ccc(c(c1)Cl)Cl,CNC(=O)OCC=1C=CC(=C(C1)Cl)Cl,-3.13895
DSVWYTCFNFNGHA-UHFFFAOYSA-N,Phenobarbital,CC(C)NCC(O)COC1CCCC2NCCC21,CC(C)NCC(COC1CCCC2C1CCN2)O,C(C(CNC(C)C)O)OC1CCCC2C1CCN2,-2.293
DSYAJHRMVXOBRK-UHFFFAOYSA-N,METHYL 2-({4-[2-(2-CYANO-4-NITROPHENYL)DIAZEN-1-YL]-3-ACETAMIDOPHENYL}(2-METHOXY-2-OXOETHYL)AMINO)ACETATE,COC(=O)CN(CC(=O)OC)c1ccc(/N=N/c2ccc([N+](=O)[O-])cc2C#N)c(NC(C)=O)c1,CC(=O)Nc1cc(ccc1/N=N/c2ccc(cc2C#N)[N+](=O)[O-])N(CC(=O)OC)CC(=O)OC,COC(=O)CN(CC(=O)OC)C=1C=CC(=C(C1)NC(=O)C)/N=N/C=2C=CC(=CC2C#N)[N+](=O)[O-],-5.193759869
DSZTYVZOIUIIGA-UHFFFAOYSA-N,2-Tetradecyloxirane,CCCCCCCCCCCCCCC1CO1,CCCCCCCCCCCCCCC1CO1,CCCCCCCCCCCCCCC1CO1,-6.682
DSZZNDFZYULEER-UHFFFAOYSA-N,,COc1cc2c(Nc3cccc(C)c3)ncnc2cc1OCCCNCCCn1ccnc1,Cc1cccc(c1)Nc2c3cc(c(cc3ncn2)OCCCNCCCn4ccnc4)OC,COC=1C=C2C(=NC=NC2=CC1OCCCNCCCN3C=CN=C3)NC=4C=CC=C(C4)C,-3.0177287999999995
DTAPQAJKAFRNJB-UHFFFAOYSA-N,promecarb,CNC(=O)Oc1cc(C)cc(C(C)C)c1,Cc1cc(cc(c1)OC(=O)NC)C(C)C,CNC(=O)OC=1C=C(C=C(C1)C(C)C)C,-3.35725
DTAWRBFZJDSTAZ-UHFFFAOYSA-N,,O=C(Nc1ccc2c(c1)c1ccccc1n2CC(F)(F)F)N1CCOCC1,c1ccc2c(c1)c3cc(ccc3n2CC(F)(F)F)NC(=O)N4CCOCC4,FC(F)(F)CN1C=2C=CC=CC2C3=C1C=CC(=C3)NC(=O)N4CCOCC4,-4.8860566
DTBXZAHIFQPNSX-UHFFFAOYSA-N,,O=C(COc1ccc(OCCCCSc2nc3ccccc3s2)cc1)COc1ccc(C(=O)O)cc1,c1ccc2c(c1)nc(s2)SCCCCOc3ccc(cc3)OCC(=O)COc4ccc(cc4)C(=O)O,C=1C=CC=C2C1N=C(S2)SCCCCOC=3C=CC(=CC3)OCC(=O)COC=4C=CC(=CC4)C(=O)O,-6.9196805999999995
DTCJYIIKPVRVDD-UHFFFAOYSA-N,Benzthiazuron,CNC(=O)Nc1nc2ccccc2s1,CNC(=O)Nc1nc2ccccc2s1,CNC(=O)NC=1SC=2C=CC=CC2N1,-4.23715
DTCWWKLKJDOVQX-UHFFFAOYSA-N,"Benzamide, O-(L-arabinopyranosyloxy)-N,N-dimethy",CN(C)C(=O)c1ccccc1OC1OCC(O)C(O)C1O,CN(C)C(=O)c1ccccc1OC2C(C(C(CO2)O)O)O,C=1(C(=CC=CC1)OC2C(C(C(CO2)O)O)O)C(=O)N(C)C,-0.8711
DTDCMPMHTIVVBN-UHFFFAOYSA-N,,CC(=O)NCCn1cncc1-c1ccnc(Nc2cccc(Cl)c2)n1,CC(=O)NCCn1cncc1c2ccnc(n2)Nc3cccc(c3)Cl,CC(=O)NCCN1C=NC=C1C=2C=CN=C(N2)NC=3C=CC=C(C3)Cl,-4.0132283
DTDSAWVUFPGDMX-UHFFFAOYSA-N,,CCC(C)(C)C(=O)OC1=C(c2ccc(Cl)cc2Cl)C(=O)OC12CCCCC2,CCC(C)(C)C(=O)OC1=C(C(=O)OC12CCCCC2)c3ccc(cc3Cl)Cl,ClC1=C(C=CC(=C1)Cl)C2=C(C3(OC2=O)CCCCC3)OC(=O)C(CC)(C)C,-6.915
DTDZLJHKVNTQGZ-UHFFFAOYSA-N,,CN(C)C(=O)c1ccc(S(=O)(=O)c2ccc(NC(=O)C(C)(O)C(F)(F)F)c(Cl)c2)cc1,CC(C(=O)Nc1ccc(cc1Cl)S(=O)(=O)c2ccc(cc2)C(=O)N(C)C)(C(F)(F)F)O,CN(C)C(=O)C=1C=CC(=CC1)S(=O)(=O)C=2C=CC(=C(C2)Cl)NC(=O)C(C)(O)C(F)(F)F,-4.815595500000001
DTFISVVKXQHVKF-UHFFFAOYSA-N,,COc1ccc(Cn2cc3c(=O)n(C)c(=O)n(CC(C)C)c3c2)cc1,CC(C)Cn1c2cn(cc2c(=O)n(c1=O)C)Cc3ccc(cc3)OC,COC=1C=CC(=CC1)CN2C=C3C(=O)N(C(=O)N(C3=C2)CC(C)C)C,-4.766121599999999
DTGKSKDOIYIVQL-UHFFFAOYSA-N,Isoborneol,CC1(C)[C@@H]2CC[C@]1(C)[C@H](O)C2,CC1([C@@H]2CC[C@@]1([C@@H](C2)O)C)C,OC1C2(C(C(C1)CC2)(C)C)C,-2.32
DTGUWAQNQUYFQF-UHFFFAOYSA-N,,NC(=O)Nc1sc(-c2ccc3[nH]ccc3c2)cc1C(N)=O,c1cc2c(cc[nH]2)cc1c3cc(c(s3)NC(=O)N)C(=O)N,NC(=O)NC=1SC(=CC1C(=O)N)C=2C=CC=3NC=CC3C2,-4.229148
DTKHWNKISMVZIP-UHFFFAOYSA-N,,O=C(O)CC(COc1cccc(NC(=O)Cc2ccc3nc(Nc4ccccc4)oc3c2)c1)c1ccc(Cl)c(Cl)c1,c1ccc(cc1)Nc2nc3ccc(cc3o2)CC(=O)Nc4cccc(c4)OCC(CC(=O)O)c5ccc(c(c5)Cl)Cl,OC(=O)CC(COC=1C=CC=C(C1)NC(=O)CC=2C=CC=3N=C(OC3C2)NC=4C=CC=CC4)C=5C=CC(=C(C5)Cl)Cl,-5.2839967
DTNODBHGOLWROS-UHFFFAOYSA-N,"Benzenesulfonic acid, 3-amino-4-methyl-",Cc1ccc(S(=O)(=O)O)cc1N,Cc1ccc(cc1N)S(=O)(=O)O,S(=O)(=O)(C=1C=C(C(=CC1)C)N)O,-1.032
DTPFDWCBDYPUHO-UHFFFAOYSA-N,aluminium(3+) ion tris(N-nitroso-N-oxidoaniline),O=NN([O-])c1ccccc1,c1ccc(cc1)N(N=O)[O-],[O-]N(N=O)C=1C=CC=CC1,-6.194824555
DTQQMULENZFWGF-UHFFFAOYSA-N,Ethylparaben,CCc1cc(O)ccc1C(=O)O,CCc1cc(ccc1C(=O)O)O,OC(=O)C1=C(C=C(C=C1)O)CC,-1.959
DTRVJSGVJLBNEZ-UHFFFAOYSA-N,,O=C(Cc1ccc(Cl)nc1)N(C1CC1)C1CCN(CCC(c2ccccc2)c2ccccc2)CC1,c1ccc(cc1)C(CCN2CCC(CC2)N(C3CC3)C(=O)Cc4ccc(nc4)Cl)c5ccccc5,ClC=1C=CC(=CN1)CC(=O)N(C2CC2)C3CCN(CC3)CCC(C=4C=CC=CC4)C=5C=CC=CC5,-4.0655015
DTSSCQVCVYZGSI-UHFFFAOYSA-N,Chloramben_Methyl_Ester,COC(=O)c1cc(Cl)cc(N)c1Cl,COC(=O)c1cc(cc(c1Cl)N)Cl,O=C(OC)C1=C(C(=CC(=C1)Cl)N)Cl,-3.2615
DTTNWXZGGKVDQL-UHFFFAOYSA-N,,COCCNS(=O)(=O)c1ccc(Nc2ncc(Cl)c(-c3cnc(C)n3C)n2)cc1,Cc1ncc(n1C)c2c(cnc(n2)Nc3ccc(cc3)S(=O)(=O)NCCOC)Cl,COCCNS(=O)(=O)C=1C=CC(=CC1)NC=2N=CC(=C(N2)C3=CN=C(N3C)C)Cl,-4.537602
DTVOKYWXACGVGO-UHFFFAOYSA-N,flupyrsulfuron-methyl,COC(=O)c1ccc(C(F)(F)F)nc1S(=O)(=O)NC(=O)Nc1nc(OC)cc(OC)n1,COc1cc(nc(n1)NC(=O)NS(=O)(=O)c2c(ccc(n2)C(F)(F)F)C(=O)OC)OC,COC(=O)C1=CC=C(N=C1S(=O)(=O)NC(=O)NC2=NC(=CC(=N2)OC)OC)C(F)(F)F,-3.89
DTWBOPJMZJGHEW-UHFFFAOYSA-N,"Phenol, 4-chloro-3,5-dimethyl-2-(phenylmethyl)-",Cc1cc(O)c(Cc2ccccc2)c(C)c1Cl,Cc1cc(c(c(c1Cl)C)Cc2ccccc2)O,CC=1C=C(C(=C(C1Cl)C)CC=2C=CC=CC2)O,-4.30095
DTYWNPBZFOXADJ-UHFFFAOYSA-N,,O=C(NCCN1CCCC1)c1ccc(Nc2ncc(Br)c(Nc3ccccc3)n2)cc1,c1ccc(cc1)Nc2c(cnc(n2)Nc3ccc(cc3)C(=O)NCCN4CCCC4)Br,BrC=1C=NC(=NC1NC=2C=CC=CC2)NC=3C=CC(=CC3)C(=O)NCCN4CCCC4,-4.1487417
DUAASAVOKXBDLI-UHFFFAOYSA-N,"N1-(2,3-DICHLOROPHENYL)SULFANILAMIDE",Nc1ccc(S(=O)(=O)Nc2cccc(Cl)c2Cl)cc1,c1cc(c(c(c1)Cl)Cl)NS(=O)(=O)c2ccc(cc2)N,NC1=CC=C(C=C1)S(=O)(=O)NC2=CC=CC(=C2Cl)Cl,-4.73
DUAAVZPXVWYBII-UHFFFAOYSA-N,3-ACETOXYMETHYL-5-FLUOROURACIL,CC(=O)OCn1c(=O)[nH]cc(F)c1=O,CC(=O)OCn1c(=O)c(c[nH]c1=O)F,CC(=O)OCN1C(=O)NC=C(C1=O)F,-1.2
DUAKMDICSXCWNP-UHFFFAOYSA-N,,CC(C)CC(NC(=O)Cc1ccc2nc(Cc3ccccc3)oc2c1)C(=O)NC(CC(=O)O)c1ccc2c(c1)OCO2,CC(C)CC(C(=O)NC(CC(=O)O)c1ccc2c(c1)OCO2)NC(=O)Cc3ccc4c(c3)oc(n4)Cc5ccccc5,CC(C)CC(NC(=O)CC=1C=CC=2N=C(OC2C1)CC=3C=CC=CC3)C(=O)NC(CC(=O)O)C=4C=CC5=C(C4)OCO5,-3.154902
DUAONSMGNHXBMX-UHFFFAOYSA-N,"7-Chloro-3,4-dihydro-1H-1,4-benzodiazepine-2,5-dione",O=C1CNC(=O)c2cc(Cl)ccc2N1,c1cc2c(cc1Cl)C(=O)NCC(=O)N2,O=C1CNC(=O)C2=C(C=CC(=C2)Cl)N1,-3.048
DUCBKFANLUPMGX-UHFFFAOYSA-N,,COc1cc2ncnc(Nc3cc(Cl)ccc3F)c2cc1OCCCN1CCOCC1,COc1cc2c(cc1OCCCN3CCOCC3)c(ncn2)Nc4cc(ccc4F)Cl,COC=1C=C2N=CN=C(C2=CC1OCCCN3CCOCC3)NC=4C=C(C=CC4F)Cl,-3.49485
DUDFRLLZEQANDP-UHFFFAOYSA-N,"Benzenamine, N,2-dinitro-",O=[N+]([O-])Nc1ccccc1[N+](=O)[O-],c1ccc(c(c1)N[N+](=O)[O-])[N+](=O)[O-],[N+](=O)(C1=C(C=CC=C1)N[N+](=O)[O-])[O-],-1.149
DUEPRVBVGDRKAG-UHFFFAOYSA-N,Carbofuran,CNC(=O)Oc1cccc2c1OC(C)(C)C2,CC1(Cc2cccc(c2O1)OC(=O)NC)C,CNC(=O)OC=1C=CC=C2C1OC(C2)(C)C,-2.8
DUFVKSUJRWYZQP-UHFFFAOYSA-N,Fosthiazate,CCOP(=O)(SC(C)CC)N1CCSC1=O,CCC(C)SP(=O)(N1CCSC1=O)OCC,P(=O)(N1C(=O)SCC1)(SC(CC)C)OCC,-1.45895
DUGWBMXFSCILOV-UHFFFAOYSA-N,5-oxo-3-phenylhexanoic acid,CC(=O)CC(CC(=O)O)c1ccccc1,CC(=O)CC(CC(=O)O)c1ccccc1,CC(=O)CC(CC(=O)O)C=1C=CC=CC1,-1.444
DUHJRZMVUXWYDS-UHFFFAOYSA-N,,Cc1ccc(Oc2nc(Nc3cccc(Cl)c3)nc(NC3CC3)n2)c[n+]1[O-],Cc1ccc(c[n+]1[O-])Oc2nc(nc(n2)NC3CC3)Nc4cccc(c4)Cl,CC=1C=CC(=C[N+]1[O-])OC=2N=C(N=C(N2)NC=3C=CC=C(C3)Cl)NC4CC4,-5.507239599999999
DUIXNLOBZQZMNO-UHFFFAOYSA-N,,COc1cc2ncnc(Nc3ccc(F)cc3F)c2cc1OCCN1CCOCC1,COc1cc2c(cc1OCCN3CCOCC3)c(ncn2)Nc4ccc(cc4F)F,COC=1C=C2N=CN=C(C2=CC1OCCN3CCOCC3)NC=4C=CC(=CC4F)F,-3.729228
DUKPKQFHJQGTGU-UHFFFAOYSA-N,Hexyl 2-hydroxybenzoate,CCCCCCOC(=O)c1ccccc1O,CCCCCCOC(=O)c1ccccc1O,CCCCCCOC(=O)C=1C=CC=CC1O,-5.0459391039999995
DULCUDSUACXJJC-UHFFFAOYSA-N,ethyl 2-phenylacetate,CCOC(=O)Cc1ccccc1,CCOC(=O)Cc1ccccc1,O=C(OCC)CC1=CC=CC=C1,-2.240601243
DUNHJGJBRJZBJD-UHFFFAOYSA-N,Isopropyl (1-(4-nitro)phenylsulfonyl) cyclohexan,CC(C)OC(=O)C1(S(=O)(=O)c2ccc([N+](=O)[O-])cc2)CCCCC1,CC(C)OC(=O)C1(CCCCC1)S(=O)(=O)c2ccc(cc2)[N+](=O)[O-],S(=O)(=O)(C1(CCCCC1)C(=O)OC(C)C)C=2C=CC(=CC2)[N+](=O)[O-],-4.8798
DUNZFXZSFJLIKR-UHFFFAOYSA-N,7-(3-amino-3-methylazetidin-1-yl)-8-chloro-1-cyclopropyl-6-fluoro-4-oxoquinoline-3-carboxylic acid,CC1(N)CN(c2c(F)cc3c(=O)c(C(=O)O)cn(C4CC4)c3c2Cl)C1,CC1(CN(C1)c2c(cc3c(c2Cl)n(cc(c3=O)C(=O)O)C4CC4)F)N,CC1(CN(C1)C2=C(C3=C(C=C2F)C(=O)C(=CN3C4CC4)C(=O)O)Cl)N,-5.331
DUONKPZXUUSLPC-UHFFFAOYSA-N,,CN1CCC(Oc2cccc3ncnc(Nc4ccc(C(=O)N5CCCC6CCCCC65)c(Cl)c4)c23)CC1,CN1CCC(CC1)Oc2cccc3c2c(ncn3)Nc4ccc(c(c4)Cl)C(=O)N5CCCC6C5CCCC6,CN1CCC(CC1)OC=2C=CC=C3C2C(=NC=N3)NC=4C=CC(=C(C4)Cl)C(=O)N5CCCC6C5CCCC6,-4.3882767
DUPNQUDKGLFCEW-UHFFFAOYSA-N,,CN1CCC(Oc2ccc(Nc3ncc(Br)c(Nc4ccccc4)n3)cc2)CC1,CN1CCC(CC1)Oc2ccc(cc2)Nc3ncc(c(n3)Nc4ccccc4)Br,CN1CCC(CC1)OC=2C=CC(=CC2)NC=3N=CC(=C(N3)NC=4C=CC=CC4)Br,-4.9586073
DURORSBOSAOUFN-UHFFFAOYSA-N,,CCOCCS(=O)(=O)c1ccc(Nc2ncc(C#N)c(NC3CC3)n2)cc1,CCOCCS(=O)(=O)c1ccc(cc1)Nc2ncc(c(n2)NC3CC3)C#N,CCOCCS(=O)(=O)C=1C=CC(=CC1)NC=2N=CC(=C(N2)NC3CC3)C#N,-5.3187587999999995
DURULFYMVIFBIR-UHFFFAOYSA-N,practolol,CC(=O)Nc1ccc(OCC(O)CNC(C)C)cc1,CC(C)NCC(COc1ccc(cc1)NC(=O)C)O,CC(C)NCC(COC1=CC=C(C=C1)NC(=O)C)O,-2.735240315
DUTVNPJRBCTWHY-UHFFFAOYSA-N,Sethoxydim,CCC/C(=N\OCC)C1=C(O)CC(C(C)CSCC)CC1=O,CCC/C(=N\OCC)/C1=C(CC(CC1=O)C(C)CSCC)O,CCC/C(=N\OCC)/C1=C(CC(CC1=O)C(C)CSCC)O,-4.22
DUUHOESVIDTMNR-UHFFFAOYSA-N,"Biphenyl, dichloro-",Cc1ccc(-c2ccccc2Cl)c(Cl)c1,Cc1ccc(c(c1)Cl)c2ccccc2Cl,C1(=C(C=C(C=C1)C)Cl)C2=C(C=CC=C2)Cl,-6.635
DUVJMSPTZMCSTQ-UHFFFAOYSA-N,"Benzaldehyde, 2-ethoxy-",CCOc1ccccc1C=O,CCOc1ccccc1C=O,C1(=C(C=CC=C1)OCC)C=O,-2.112
DUXDHXOTAWOLFK-UHFFFAOYSA-N,DIMETHYL  2-PHENYLTHIOSUCCINATE,COC(=O)CC(Sc1ccccc1)C(=O)OC,COC(=O)CC(C(=O)OC)Sc1ccccc1,COC(=O)CC(SC1=CC=CC=C1)C(=O)OC,-0.85
DUXYWXYOBMKGIN-UHFFFAOYSA-N,"1,3-bis(tetradecanoyloxy)propan-2-yl tetradecanoate",CCCCCCCCCCCCCC(=O)OCC(COC(=O)CCCCCCCCCCCCC)OC(=O)CCCCCCCCCCCCC,CCCCCCCCCCCCCC(=O)OCC(COC(=O)CCCCCCCCCCCCC)OC(=O)CCCCCCCCCCCCC,CCCCCCCCCCCCCC(=O)OCC(COC(=O)CCCCCCCCCCCCC)OC(=O)CCCCCCCCCCCCC,-8.647028501
DUYFZQAJUBGBPN-UHFFFAOYSA-N,,COc1cc2c(Nc3ccc(Oc4ccccc4OC)cc3)c(C#N)cnc2cc1OCC1CCN(C)CC1,CN1CCC(CC1)COc2cc3c(cc2OC)c(c(cn3)C#N)Nc4ccc(cc4)Oc5ccccc5OC,COC=1C=CC=CC1OC=2C=CC(=CC2)NC=3C(=CN=C4C3C=C(C(=C4)OCC5CCN(CC5)C)OC)C#N,-5.4202164
DUYWDTCFCZVBCR-UHFFFAOYSA-N,,O=CN(O)C(CCCc1ccccn1)CS(=O)(=O)N1CCC(Oc2ccc(Cl)cn2)CC1,c1ccnc(c1)CCCC(CS(=O)(=O)N2CCC(CC2)Oc3ccc(cn3)Cl)N(C=O)O,ON(C=O)C(CCCC=1C=CC=CN1)CS(=O)(=O)N2CCC(CC2)OC=3C=CC(=CN3)Cl,-3.4436975
DUZJAHDJMLCDSP-UHFFFAOYSA-N,,CCN(C(=O)NCc1cccc(C)c1)C1CCN(CCC(c2ccccc2)c2ccccc2)CC1,CCN(C1CCN(CC1)CCC(c2ccccc2)c3ccccc3)C(=O)NCc4cccc(c4)C,CCN(C1CCN(CC1)CCC(C=2C=CC=CC2)C=3C=CC=CC3)C(=O)NCC=4C=CC=C(C4)C,-4.154902
DUZODDYGMSCYMJ-UHFFFAOYSA-N,(2S)-2-amino-6-octanamidohexanoic acid,CCCCCCCC(=O)NCCCC[C@H](N)C(=O)O,CCCCCCCC(=O)NCCCC[C@@H](C(=O)O)N,CCCCCCCC(=O)NCCCC[C@H](N)C(=O)O,0.057570412
DVBLPJWQXDCAKU-UHFFFAOYSA-N,"2-(4-bromo-3-hydroxyquinolin-2-yl)-2,3-dihydro-1H-indene-1,3-dione",O=C1c2ccccc2C(=O)C1c1nc2ccccc2c(Br)c1O,c1ccc2c(c1)c(c(c(n2)C3C(=O)c4ccccc4C3=O)O)Br,OC=1C(=C2C=CC=CC2=NC1C3C(=O)C=4C=CC=CC4C3=O)Br,-4.8670486330000005
DVDGSOLOFGTLNG-UHFFFAOYSA-N,,Fc1cc(C2=NOC(COc3ccon3)C2)ccc1-n1ccnc1,c1cc(c(cc1C2=NOC(C2)COc3ccon3)F)n4ccnc4,FC=1C=C(C=CC1N2C=CN=C2)C3=NOC(C3)COC=4C=CON4,-3.9208187999999993
DVDUMIQZEUTAGK-UHFFFAOYSA-N,"Butanoic acid, 4-nitrophenyl ester",CCCC(=O)Oc1ccc([N+](=O)[O-])cc1,CCCC(=O)Oc1ccc(cc1)[N+](=O)[O-],[N+](=O)(C1=CC=C(C=C1)OC(=O)CCC)[O-],-3.9402
DVFCVQLLPIJRNB-UHFFFAOYSA-N,,CCc1cnc(CCCC(CS(=O)(=O)N2CCN(c3ccc(Cl)cn3)CC2)N(O)C=O)nc1,CCc1cnc(nc1)CCCC(CS(=O)(=O)N2CCN(CC2)c3ccc(cn3)Cl)N(C=O)O,CCC=1C=NC(=NC1)CCCC(CS(=O)(=O)N2CCN(CC2)C=3C=CC(=CN3)Cl)N(O)C=O,-3.2365720000000002
DVFGEIYOLIFSRX-UHFFFAOYSA-N,3-[(2-ethylhexyl)oxy]propan-1-amine,CCCCC(CC)COCCCN,CCCCC(CC)COCCCN,CCCCC(CC)COCCCN,-1.09675456
DVIPICFRLKAAKK-UHFFFAOYSA-N,"Decanedioic acid, 2,2-diphenyl-",O=C(O)CCCCCCCC(C(=O)O)(c1ccccc1)c1ccccc1,c1ccc(cc1)C(CCCCCCCC(=O)O)(c2ccccc2)C(=O)O,O=C(C(C=1C=CC=CC1)(C=2C=CC=CC2)CCCCCCCC(=O)O)O,-3.9389999999999996
DVKJHBMWWAPEIU-UHFFFAOYSA-N,,Cc1ccc(N=C=O)cc1N=C=O,Cc1ccc(cc1N=C=O)N=C=O,CC1=CC=C(C=C1N=C=O)N=C=O,-3.6660000000000004
DVLFYONBTKHTER-UHFFFAOYSA-N,3-(morpholin-4-yl)propane-1-sulfonic acid,O=S(=O)(O)CCCN1CCOCC1,C1COCCN1CCCS(=O)(=O)O,OS(=O)(=O)CCCN1CCOCC1,0.455791254
DVLIWOMTZLWOBE-UHFFFAOYSA-O,,O=S(=O)(Nc1cc2c(O)n(-c3ccc(F)cc3)n[n+]2c2ccccc12)c1cccnc1,c1ccc2c(c1)c(cc3[n+]2nn(c3O)c4ccc(cc4)F)NS(=O)(=O)c5cccnc5,C=1N=CC=CC1S(=O)(=O)NC2=CC3=C(N(N=[N+]3C4=C2C=CC=C4)C=5C=CC(=CC5)F)O,-3.3958873
DVMGOHMYQSICJI-UHFFFAOYSA-N,,CN1CCN(Cc2csc(-c3ccccc3)n2)CC1,CN1CCN(CC1)Cc2csc(n2)c3ccccc3,CN1CCN(CC1)CC2=CSC(=N2)C=3C=CC=CC3,-5.6777807000000005
DVOGOHQEJRBFIS-UHFFFAOYSA-N,,Cc1cc(Nc2ccnc3cc(Br)ccc23)cc(C)c1S(=O)(=O)C[N+](=O)[O-],Cc1cc(cc(c1S(=O)(=O)C[N+](=O)[O-])C)Nc2ccnc3c2ccc(c3)Br,CC=1C=C(C=C(C1S(=O)(=O)C[N+](=O)[O-])C)NC=2C=CN=C3C2C=CC(=C3)Br,-5.7772835
DVOODWOZJVJKQR-UHFFFAOYSA-N,Oxadiargyl,C#CCOc1cc(-n2nc(C(C)(C)C)oc2=O)c(Cl)cc1Cl,CC(C)(C)c1nn(c(=O)o1)c2cc(c(cc2Cl)Cl)OCC#C,N1(N=C(OC1=O)C(C)(C)C)C=2C=C(C(=CC2Cl)Cl)OCC#C,-5.9648
DVPLSZDCYOJSOG-UHFFFAOYSA-N,"2-[(4-{(4-anilinophenyl)[4-(phenylimino)cyclohexa-2,5-dien-1-ylidene]methyl}phenyl)amino]benzenesulfonic acid",O=S(=O)(O)c1ccccc1N=C1C=CC(=C(c2ccc(Nc3ccccc3)cc2)c2ccc(Nc3ccccc3)cc2)C=C1,c1ccc(cc1)Nc2ccc(cc2)C(=C3C=CC(=Nc4ccccc4S(=O)(=O)O)C=C3)c5ccc(cc5)Nc6ccccc6,OS(=O)(=O)C=1C=CC=CC1N=C2C=CC(=C(C=3C=CC(=CC3)NC=4C=CC=CC4)C=5C=CC(=CC5)NC=6C=CC=CC6)C=C2,-8.377052544
DVPVWRYIDHDOOO-UHFFFAOYSA-N,,Cc1ccc(NC(=O)c2ccnc(N3CCOCC3)c2)cc1NC(=O)c1ccc(NCCC2CCCN2C)nc1,Cc1ccc(cc1NC(=O)c2ccc(nc2)NCCC3CCCN3C)NC(=O)c4ccnc(c4)N5CCOCC5,CN1CCCC1CCNC=2C=CC(=CN2)C(=O)NC=3C=C(C=CC3C)NC(=O)C=4C=CN=C(C4)N5CCOCC5,-3.49485
DVQVBLBKEXITIK-UHFFFAOYSA-N,Glybuthiazole,CC(C)(C)c1nnc(NS(=O)(=O)c2ccc(N)cc2)s1,CC(C)(C)c1nnc(s1)NS(=O)(=O)c2ccc(cc2)N,S(=O)(=O)(NC=1SC(=NN1)C(C)(C)C)C=2C=CC(=CC2)N,-3.74
DVRJCBOAIPILPC-UHFFFAOYSA-N,"Pyran, 2,2'-oxybis[tetrahydro-6-methyl-",CC1CCCC(OC2CCCC(C)O2)O1,CC1CCCC(O1)OC2CCCC(O2)C,O1C(CCCC1C)OC2OC(CCC2)C,-1.10815
DVUZCPZOEGBIKA-UHFFFAOYSA-N,,CC1CN(C(C)CO)C(=O)CCCn2cc(nn2)COC1CN(C)C(=O)Nc1ccc(C(F)(F)F)cc1,CC1CN(C(=O)CCCn2cc(nn2)COC1CN(C)C(=O)Nc3ccc(cc3)C(F)(F)F)C(C)CO,CC(CO)N1CC(C(OCC2=CN(N=N2)CCCC1=O)CN(C)C(=O)NC3=CC=C(C=C3)C(F)(F)F)C,-4.0
DVVVPMHPSRJZQX-UHFFFAOYSA-N,"Urea, 1-ethyl-1-o-tolyl-",CCN(C(N)=O)c1ccccc1C,CCN(c1ccccc1C)C(=O)N,CCN(C(=O)N)C=1C=CC=CC1C,-0.2096
DVWSXZIHSUZZKJ-UHFFFAOYSA-N,METHYL  LINOLENATE,CC/C=C/C/C=C/C/C=C/CCCCCCCC(=O)OC,CC/C=C/C/C=C/C/C=C/CCCCCCCC(=O)OC,CC/C=C/C/C=C/C/C=C/CCCCCCCC(=O)OC,-6.5
DVYIYOMVWRBDIC-UHFFFAOYSA-N,,NC(=O)Nc1cc(-c2ccco2)sc1C(N)=O,c1cc(oc1)c2cc(c(s2)C(=O)N)NC(=O)N,NC(=O)NC=1C=C(SC1C(=O)N)C2=CC=CO2,-3.5850267
DWAHQOXLHCVMBE-UHFFFAOYSA-N,"Benzenepropanoic acid, .alpha.-ethyl-.beta.-hydr",CCC(C(=O)O)C(O)c1ccccc1,CCC(C(c1ccccc1)O)C(=O)O,C(C(=O)O)(C(C=1C=CC=CC1)O)CC,-1.0190000000000001
DWAWUQFFAMMCRL-UHFFFAOYSA-N,,CCCN1CCN(c2ccc3ncn(-c4cc(NC(=O)c5ccc(C#N)cc5)ccc4C)c(=O)c3c2)CC1,CCCN1CCN(CC1)c2ccc3c(c2)c(=O)n(cn3)c4cc(ccc4C)NC(=O)c5ccc(cc5)C#N,CCCN1CCN(CC1)C=2C=CC=3N=CN(C(=O)C3C2)C=4C=C(C=CC4C)NC(=O)C=5C=CC(=CC5)C#N,-4.8860566
DWBQZSYTSNYEEJ-UHFFFAOYSA-N,"2,7-DICHLORONAPHTHALENE",Clc1ccc2ccc(Cl)cc2c1,c1cc(cc2c1ccc(c2)Cl)Cl,ClC=1C=CC=2C=CC(=CC2C1)Cl,-5.92185
DWCJGLPGZULWPZ-UHFFFAOYSA-N,Hyenanchin,C=C(C)C1(O)[C@H]2OC(=O)[C@@H]1[C@]1(O)[C@H]3O[C@H]3[C@]3(CO3)[C@]1(C)[C@@H]2O,CC(=C)C1([C@@H]2[C@H]([C@]3([C@@]4(CO4)[C@H]5[C@@H]([C@]3([C@H]1C(=O)O2)O)O5)C)O)O,CC(=C)C1([C@H]2OC(=O)[C@@H]1[C@@]3([C@H]4O[C@H]4[C@@]5([C@@]3([C@@H]2O)C)CO5)O)O,-1.42
DWCZGULFVVIGBU-UHFFFAOYSA-N,4-[3-(dimethylaminomethyl)-4-hydroxybenzoyl]thiophene-2-sulfonamide,CN(C)Cc1cc(C(=O)c2csc(S(N)(=O)=O)c2)ccc1O,CN(C)Cc1cc(ccc1O)C(=O)c2cc(sc2)S(=O)(=O)N,CN(C)CC1=C(C=CC(=C1)C(=O)C2=CSC(=C2)S(=O)(=O)N)O,-1.5375
DWFUTNJGNBYHNN-UHFFFAOYSA-N,"2,2,4-trimethylhexanedioic acid; 2,4,4-trimethylhexanedioic acid",CC(CC(=O)O)CC(C)(C)C(=O)O,CC(CC(=O)O)CC(C)(C)C(=O)O,CC(CC(=O)O)CC(C)(C)C(=O)O,-0.279018749
DWFZBUWUXWZWKD-UHFFFAOYSA-N,Pyridaben,CC(C)(C)c1ccc(CSc2cnn(C(C)(C)C)c(=O)c2Cl)cc1,CC(C)(C)c1ccc(cc1)CSc2cnn(c(=O)c2Cl)C(C)(C)C,CC(C)(C)N1N=CC(=C(C1=O)Cl)SCC=2C=CC(=CC2)C(C)(C)C,-7.483
DWMREKMVXIFPFM-UHFFFAOYSA-N,,Cc1cnc(N/C(O)=C2/C(=O)c3ccccc3S(=O)(=O)N2C)s1,Cc1cnc(s1)N/C(=C\2/C(=O)c3ccccc3S(=O)(=O)N2C)/O,S1(=O)(=O)N(/C(=C(/O)\NC=2SC(=CN2)C)/C(=O)C=3C1=CC=CC3)C,0.3219
DWNAQMUDCDVSLT-UHFFFAOYSA-N,diphenyl phthalate,O=C(Oc1ccccc1)c1ccccc1C(=O)Oc1ccccc1,c1ccc(cc1)OC(=O)c2ccccc2C(=O)Oc3ccccc3,O=C(OC=1C=CC=CC1)C=2C=CC=CC2C(=O)OC=3C=CC=CC3,-6.58905
DWNDWOWFRXOHMD-UHFFFAOYSA-N,Amitriptyline,COC1CCCCC1OCCNCC(O)COC1CCCC2NC3CCCCC3C21,COC1CCCCC1OCCNCC(COC2CCCC3C2C4CCCCC4N3)O,C(C(CNCCOC1CCCCC1OC)O)OC2C3C4C(NC3CCC2)CCCC4,-4.55
DWONGEILFWHXCI-UHFFFAOYSA-N,,NS(=O)(=O)c1ccc(-c2cc3c([N+](=O)[O-])cccc3o2)cc1,c1cc(c2cc(oc2c1)c3ccc(cc3)S(=O)(=O)N)[N+](=O)[O-],NS(=O)(=O)C=1C=CC(=CC1)C2=CC=3C(=CC=CC3O2)[N+](=O)[O-],-6.0
DWOXXMGPEQVGNI-UHFFFAOYSA-N,"Hexanedioic acid, 2,5-dimethyl-",CC(CCC(C)C(=O)O)C(=O)O,CC(CCC(C)C(=O)O)C(=O)O,OC(=O)C(CCC(C(=O)O)C)C,-0.415
DWPCPZJAHOETAG-UHFFFAOYSA-N,"D-Cysteine, S-(2-amino-2-carboxyethyl)-, (R)-",NC(CSCC(N)C(=O)O)C(=O)O,C(C(C(=O)O)N)SCC(C(=O)O)N,NC(CSCC(N)C(=O)O)C(=O)O,-2.555
DWQOTEPNRWVUDA-UHFFFAOYSA-N,2-[(4-hydroxyphenyl)diazenyl]benzoic acid,O=C(O)c1ccccc1/N=N/c1ccc(O)cc1,c1ccc(c(c1)C(=O)O)/N=N/c2ccc(cc2)O,O=C(O)C1=C(C=CC=C1)/N=N/C2=CC=C(C=C2)O,-3.3295