inchikey,Name,SMILES_stand,SMILES,kekSmiles,logS
CVBDHYONNUUHGO-UHFFFAOYSA-N,,CSCCNS(=O)(=O)c1ccc(NC(=O)C(C)(O)C(F)(F)F)c(Cl)c1,CC(C(=O)Nc1ccc(cc1Cl)S(=O)(=O)NCCSC)(C(F)(F)F)O,CSCCNS(=O)(=O)C=1C=CC(=C(C1)Cl)NC(=O)C(C)(O)C(F)(F)F,-3.2676062000000003
CVBUJZAJFWGXPC-UHFFFAOYSA-N,,CC1CN(C(C)CO)C(=O)CCCn2nncc2COC1CN(C)S(=O)(=O)c1cn(C)cn1,CC1CN(C(=O)CCCn2c(cnn2)COC1CN(C)S(=O)(=O)c3cn(cn3)C)C(C)CO,CC(CO)N1CC(C(OCC2=CN=NN2CCCC1=O)CN(C)S(=O)(=O)C3=CN(C=N3)C)C,-4.0
CVBUKMMMRLOKQR-UHFFFAOYSA-N,"1,3-Butanedione, 1-phenyl-",CC(=O)CC(=O)c1ccccc1,CC(=O)CC(=O)c1ccccc1,CC(=O)CC(=O)C=1C=CC=CC1,-2.6269
CVCCDFPEKAUSBB-UHFFFAOYSA-N,,Cc1c(NC(=O)N2CCOCC2)ccc2c1c1cc(F)ccc1n2C(C)C,Cc1c(ccc2c1c3cc(ccc3n2C(C)C)F)NC(=O)N4CCOCC4,CC(C)N1C=2C=CC(=CC2C3=C1C=CC(=C3C)NC(=O)N4CCOCC4)F,-4.721246400000001
CVESKLMAHACFBU-UHFFFAOYSA-N,,CN(C)CC(O)COc1ccc(Nc2ncc(Br)c(Nc3ccc(O)cc3)n2)cc1,CN(C)CC(COc1ccc(cc1)Nc2ncc(c(n2)Nc3ccc(cc3)O)Br)O,CN(C)CC(O)COC=1C=CC(=CC1)NC=2N=CC(=C(N2)NC=3C=CC(=CC3)O)Br,-4.2218487
CVHZOJJKTDOEJC-UHFFFAOYSA-N,"saccharin;  1,2-benzisothiazol-3(2h)-one 1,1-dioxide",O=C1NS(=O)(=O)c2ccccc21,c1ccc2c(c1)C(=O)NS2(=O)=O,O=S1(=O)C2=CC=CC=C2C(=O)N1,-1.661
CVIAGZAJMXUPHC-UHFFFAOYSA-N,,COCCOc1cc2ncnc(C3C(=O)Nc4ncccc43)c2cc1OC,COCCOc1cc2c(cc1OC)c(ncn2)C3c4cccnc4NC3=O,COCCOC=1C=C2N=CN=C(C2=CC1OC)C3C(=O)NC4=C3C=CC=N4,-6.69897
CVIFULHJDJSBJQ-UHFFFAOYSA-N,,COc1cc2c(Nc3cnc(NC(=O)c4ccc(Cl)c(Cl)c4)nc3)ncnc2cc1OCC1CCN(C)CC1,CN1CCC(CC1)COc2cc3c(cc2OC)c(ncn3)Nc4cnc(nc4)NC(=O)c5ccc(c(c5)Cl)Cl,COC=1C=C2C(=NC=NC2=CC1OCC3CCN(CC3)C)NC=4C=NC(=NC4)NC(=O)C=5C=CC(=C(C5)Cl)Cl,-4.055517299999999
CVINWVPRKDIGLL-UHFFFAOYSA-N,4-Chloro-2-(trifluoromethyl)aniline,Nc1ccc(Cl)cc1C(F)(F)F,c1cc(c(cc1Cl)C(F)(F)F)N,NC=1C=CC(=CC1C(F)(F)F)Cl,-3.281740688
CVIOXIJACLUKFU-UHFFFAOYSA-N,"2-(3,5-dibromo-4-oxopyridin-1-yl)-~{N},~{N}-diethylacetamide",CCN(CC)C(=O)Cn1cc(Br)c(=O)c(Br)c1,CCN(CC)C(=O)Cn1cc(c(=O)c(c1)Br)Br,N1(C=C(C(=O)C(=C1)Br)Br)CC(=O)N(CC)CC,-2.311
CVJXQVZPWKDJFD-UHFFFAOYSA-N,,O=C(O)c1cc2cc(O)ccc2n1Cc1ccc(Cl)c(Br)c1,c1cc(c(cc1Cn2c3ccc(cc3cc2C(=O)O)O)Br)Cl,OC(=O)C1=CC=2C=C(C=CC2N1CC=3C=CC(=C(C3)Br)Cl)O,-2.4814861
CVLHGLWXLDOELD-UHFFFAOYSA-N,sodium 4-(propan-2-yl)benzene-1-sulfonate,CC(C)c1ccc(S(=O)(=O)O)cc1,CC(C)c1ccc(cc1)S(=O)(=O)O,CC(C)C=1C=CC(=CC1)S(=O)(=O)O,0.34601136899999996
CVOJFSBJHSHLQV-UHFFFAOYSA-N,,COc1ccc(Cl)c(Nc2ncnc3cc(OCCCN4CCOCC4)c(OC)cc23)c1,COc1ccc(c(c1)Nc2c3cc(c(cc3ncn2)OCCCN4CCOCC4)OC)Cl,COC=1C=CC(=C(C1)NC=2N=CN=C3C2C=C(C(=C3)OCCCN4CCOCC4)OC)Cl,-4.1426675
CVPGDWLGSKSTNB-UHFFFAOYSA-N,,O=C(O)c1cc2ccccc2n1Cc1cccc(Cl)c1,c1ccc2c(c1)cc(n2Cc3cccc(c3)Cl)C(=O)O,OC(=O)C1=CC=2C=CC=CC2N1CC=3C=CC=C(C3)Cl,-2.9208187999999997
CVPXQMUHAZMTEO-UHFFFAOYSA-N,"1-Cyclopentene-1-carboxylic acid, 2,3,3-trimethy",CC1=C(C(=O)O)CCC1(C)C,CC1=C(CCC1(C)C)C(=O)O,CC1=C(CCC1(C)C)C(=O)O,-2.88705
CVQODEWAPZVVBU-UHFFFAOYSA-N,XMC,CNC(=O)Oc1cc(C)cc(C)c1,Cc1cc(cc(c1)OC(=O)NC)C,O=C(OC=1C=C(C=C(C1)C)C)NC,-2.5810000000000004
CVRALZAYCYJELZ-UHFFFAOYSA-N,leptophos;  phosvel,COP(=S)(Oc1cc(Cl)c(Br)cc1Cl)c1ccccc1,COP(=S)(c1ccccc1)Oc2cc(c(cc2Cl)Br)Cl,COP(=S)(OC=1C=C(C(=CC1Cl)Br)Cl)C=2C=CC=CC2,-6.39895
CVTHRBAUMQWSOE-UHFFFAOYSA-N,,CNC(=O)C[S+]([O-])c1ccc(S(=O)(=O)c2ccc(NC(=O)C(C)(O)C(F)(F)F)c(Cl)c2)cc1,CC(C(=O)Nc1ccc(cc1Cl)S(=O)(=O)c2ccc(cc2)S(=O)CC(=O)NC)(C(F)(F)F)O,CNC(=O)CS(=O)C=1C=CC(=CC1)S(=O)(=O)C=2C=CC(=C(C2)Cl)NC(=O)C(C)(O)C(F)(F)F,-3.455932
CVUDBPILLYLOSC-UHFFFAOYSA-N,"Bis(2,4-dichloro-5-nitrophenyl) carbonate",O=C(Oc1cc([N+](=O)[O-])c(Cl)cc1Cl)Oc1cc([N+](=O)[O-])c(Cl)cc1Cl,c1c(c(cc(c1OC(=O)Oc2cc(c(cc2Cl)Cl)[N+](=O)[O-])Cl)Cl)[N+](=O)[O-],O=[N+]([O-])C=1C=C(C(=CC1Cl)Cl)OC(=O)OC=2C=C(C(=CC2Cl)Cl)[N+](=O)[O-],-6.812953731
CVVLTVGCFZGSKO-UHFFFAOYSA-N,,c1cncc(-c2ncc3c(n2)-c2ccccc2OC3)c1,c1ccc2c(c1)-c3c(cnc(n3)c4cccnc4)CO2,C=1C=CN=CC1C=2N=CC3=C(N2)C4=C(C=CC=C4)OC3,-6.4357473
CVWHRDJDXCEZGH-UHFFFAOYSA-N,5-Methyl-5-(3-methylbut-2-enyl)barbiturate,CC(C)=CCC1(C)C(=O)NC(=O)NC1=O,CC(=CCC1(C(=O)NC(=O)NC1=O)C)C,O=C1NC(=O)C(C(=O)N1)(CC=C(C)C)C,-2.6005
CVWSULASWLZVCH-UHFFFAOYSA-N,Vat Orange 11,O=c1c2ccccc2c(=O)c2c1ccc1c3ccc4c(=O)c5c(ccc6c7ccc8c(=O)c9ccccc9c(=O)c8c7[nH]c65)c(=O)c4c3[nH]c12,c1ccc2c(c1)c(=O)c3ccc4c5ccc6c(c5[nH]c4c3c2=O)c(=O)c7ccc8c9ccc1c(c9[nH]c8c7c6=O)c(=O)c2ccccc2c1=O,O=C1C=2C=CC=CC2C(=O)C3=C1C=CC4=C3NC=5C4=CC=C6C5C(=O)C7=C(C6=O)C=8NC=9C(C8C=C7)=CC=C1C9C(=O)C2=C(C1=O)C=CC=C2,-8.810822552000001
CVWXLIFTNILJFS-UHFFFAOYSA-N,"2-<(Z)-2,4-dinitro-phenylhydrazono>-propionic ac",C/C(=N\Nc1ccc([N+](=O)[O-])cc1[N+](=O)[O-])C(=O)O,C/C(=N\Nc1ccc(cc1[N+](=O)[O-])[N+](=O)[O-])/C(=O)O,O=C(O)/C(=N/NC1=CC=C(C=C1[N+](=O)[O-])[N+](=O)[O-])/C,-1.0170000000000001
CVXBEEMKQHEXEN-UHFFFAOYSA-N,naphthalen-1-yl N-methylcarbamate,CNC(=O)Oc1cccc2ccccc12,CNC(=O)Oc1cccc2c1cccc2,O=C(OC1=C2C(C=CC=C2)=CC=C1)NC,-3.28
CVYFGRCJCXASFJ-UHFFFAOYSA-N,,COc1cc2c(Nc3cnc(OCc4cccc(Cl)c4)nc3)ncnc2cc1OCCCN1CCC(CCO)CC1,COc1cc2c(cc1OCCCN3CCC(CC3)CCO)ncnc2Nc4cnc(nc4)OCc5cccc(c5)Cl,COC=1C=C2C(=NC=NC2=CC1OCCCN3CCC(CC3)CCO)NC=4C=NC(=NC4)OCC=5C=CC=C(C5)Cl,-6.205512000000001
CVYZVNVPQRKDLW-UHFFFAOYSA-N,"benzene, 1-methoxy-2,4-dinitro-",COc1ccc([N+](=O)[O-])cc1[N+](=O)[O-],COc1ccc(cc1[N+](=O)[O-])[N+](=O)[O-],COC=1C=CC(=CC1[N+](=O)[O-])[N+](=O)[O-],-3.1069999999999998
CWBFXLNEPCROQA-UHFFFAOYSA-N,,O=C(O)c1cc2c(O)cccc2n1Cc1ccc(Cl)c(Cl)c1,c1cc2c(cc(n2Cc3ccc(c(c3)Cl)Cl)C(=O)O)c(c1)O,OC(=O)C1=CC=2C(=CC=CC2N1CC=3C=CC(=C(C3)Cl)Cl)O,-2.69897
CWFNFSVQWPOKTD-UHFFFAOYSA-N,,Nc1ccc(OC2CCN(c3ccncc3)C2)cc1,c1cc(ccc1N)OC2CCN(C2)c3ccncc3,NC=1C=CC(=CC1)OC2CCN(C2)C=3C=CN=CC3,-2.2924298
CWFOCCVIPCEQCK-UHFFFAOYSA-N,,CCOCn1c(-c2ccc(Cl)cc2)c(C#N)c(Br)c1C(F)(F)F,CCOCn1c(c(c(c1C(F)(F)F)Br)C#N)c2ccc(cc2)Cl,ClC1=CC=C(C=C1)C2=C(C(=C(N2COCC)C(F)(F)F)Br)C#N,-6.561
CWFUJUAAYMGFHE-UHFFFAOYSA-N,,Cc1c(-c2ccc(OCc3cscn3)cc2)sc(N)c1C(N)=O,Cc1c(c(sc1c2ccc(cc2)OCc3cscn3)N)C(=O)N,CC1=C(SC(=C1C(=O)N)N)C=2C=CC(=CC2)OCC3=CSC=N3,-6.080921900000001
CWGBMRGUFCGALQ-UHFFFAOYSA-N,,N#Cc1c(O)ccc2c1cc(C(=O)O)n2Cc1ccc(Cl)c(Cl)c1,c1cc(c(cc1Cn2c3ccc(c(c3cc2C(=O)O)C#N)O)Cl)Cl,OC(=O)C1=CC=2C(=C(C=CC2N1CC=3C=CC(=C(C3)Cl)Cl)O)C#N,-5.6197888
CWJQQASJVVAXKL-UHFFFAOYSA-N,"4-(3-Methyl-5-oxo-4,5-dihydro-1H-pyrazol-1-yl)benzenesulfonic acid",CC1=NN(c2ccc(S(=O)(=O)O)cc2)C(=O)C1,CC1=NN(C(=O)C1)c2ccc(cc2)S(=O)(=O)O,CC1=NN(C(=O)C1)C=2C=CC(=CC2)S(=O)(=O)O,-1.692820149
CWJSHJJYOPWUGX-UHFFFAOYSA-N,chlorpropham; chloropropham; isopropyl  n-(3-chlorophenyl)carbamate,CC(C)OC(=O)Nc1cccc(Cl)c1,CC(C)OC(=O)Nc1cccc(c1)Cl,O=C(OC(C)C)NC1=CC=CC(=C1)Cl,-3.38
CWKFPEBMTGKLKX-UHFFFAOYSA-N,,O=C(Nc1ccc(F)cc1)c1cccc(Oc2cccc(C(F)(F)F)c2)n1,c1cc(cc(c1)Oc2cccc(n2)C(=O)Nc3ccc(cc3)F)C(F)(F)F,C1=CC(=CC(=C1)OC2=CC=CC(=N2)C(=O)NC3=CC=C(C=C3)F)C(F)(F)F,-6.903
CWLDEEGARXCIFJ-UHFFFAOYSA-N,,CN(C)CC(O)COc1ccc(Nc2ncc(Br)c(Nc3ccc(S(N)(=O)=O)cc3)n2)cc1,CN(C)CC(COc1ccc(cc1)Nc2ncc(c(n2)Nc3ccc(cc3)S(=O)(=O)N)Br)O,CN(C)CC(O)COC=1C=CC(=CC1)NC=2N=CC(=C(N2)NC=3C=CC(=CC3)S(=O)(=O)N)Br,-3.853872
CWLKTJOTWITYSI-UHFFFAOYSA-N,1-FLUORONAPHTHALENE,Fc1cccc2ccccc12,c1ccc2c(c1)cccc2F,FC=1C=CC=C2C1C=CC=C2,-3.45285
CWLZDZVLPBXMKF-UHFFFAOYSA-N,N-Methylsulfonylcyclohexanesulfonamide,CS(=O)(=O)NS(=O)(=O)C1CCCCC1,CS(=O)(=O)NS(=O)(=O)C1CCCCC1,S(=O)(=O)(C1CCCCC1)NS(=O)(=O)C,-0.33
CWNPOQFCIIFQDM-UHFFFAOYSA-N,m-Nitrobenzyl alcohol,O=[N+]([O-])c1cccc(CO)c1,c1cc(cc(c1)[N+](=O)[O-])CO,[N+](=O)(C=1C=C(C=CC1)CO)[O-],-2.4141
CWNQPSHVOINRKO-UHFFFAOYSA-N,,COc1cc2c(Nc3cnc(NC(=O)c4cccn4C)nc3)ncnc2cc1OCCCN1CCNCC1,Cn1cccc1C(=O)Nc2ncc(cn2)Nc3c4cc(c(cc4ncn3)OCCCN5CCNCC5)OC,COC=1C=C2C(=NC=NC2=CC1OCCCN3CCNCC3)NC=4C=NC(=NC4)NC(=O)C5=CC=CN5C,-4.2924298
CWORHUHVVLIZFF-UHFFFAOYSA-N,,COc1ccc(Nc2nc(Nc3ccc(C(=O)NCCCN4CCCC4)cc3)ncc2Br)cc1,COc1ccc(cc1)Nc2c(cnc(n2)Nc3ccc(cc3)C(=O)NCCCN4CCCC4)Br,COC=1C=CC(=CC1)NC=2N=C(N=CC2Br)NC=3C=CC(=CC3)C(=O)NCCCN4CCCC4,-3.7958800000000004
CWOTVBBAYBRPRL-UHFFFAOYSA-N,,O=C(O)CCCOc1cc(NC(=O)Cc2ccc3nc(Nc4ccccc4)oc3c2)ccc1OC1CCNC1,c1ccc(cc1)Nc2nc3ccc(cc3o2)CC(=O)Nc4ccc(c(c4)OCCCC(=O)O)OC5CCNC5,OC(=O)CCCOC=1C=C(C=CC1OC2CCNC2)NC(=O)CC=3C=CC=4N=C(OC4C3)NC=5C=CC=CC5,-4.49485
CWPLVNJNLKTLRW-UHFFFAOYSA-N,,NS(=O)(=O)c1ccc(Nc2cc(-c3ccncc3)n[nH]2)cc1,c1cc(ccc1Nc2cc(n[nH]2)c3ccncc3)S(=O)(=O)N,NS(=O)(=O)C=1C=CC(=CC1)NC2=CC(=NN2)C=3C=CN=CC3,-6.2006595
CWRKZMLUDFBPAO-UHFFFAOYSA-N,Dec-4-enal,CCCCC/C=C/CCC=O,CCCCC/C=C/CCC=O,CCCCC/C=C/CCC=O,-3.301871447
CWRYPZZKDGJXCA-UHFFFAOYSA-N,Acenapthene,c1cc2c3c(cccc3c1)CC2,c1cc2cccc3c2c(c1)CC3,C=1C=CC=2C=CC=C3C2C1CC3,-4.62
CWUFUYMCWCMVPX-UHFFFAOYSA-N,4-[4-(butylaminomethyl)benzoyl]thiophene-2-sulfonamide,CCCCNCc1ccc(C(=O)c2csc(S(N)(=O)=O)c2)cc1,CCCCNCc1ccc(cc1)C(=O)c2cc(sc2)S(=O)(=O)N,CCCCNCC1=CC=C(C=C1)C(=O)C2=CSC(=C2)S(=O)(=O)N,-2.21
CWVDWMDSWUJGKP-UHFFFAOYSA-N,,COc1ccc2c(c1)C=C(C(=O)Nc1ccc(C)cc1)CO2,Cc1ccc(cc1)NC(=O)C2=Cc3cc(ccc3OC2)OC,COC=1C=CC2=C(C1)C=C(CO2)C(=O)NC=3C=CC(=CC3)C,-5.2441251
CWVRJTMFETXNAD-UHFFFAOYSA-N,Chlorogenic Acid,O=C(/C=C/c1ccc(O)c(O)c1)O[C@@H]1C[C@](O)(C(=O)O)C[C@@H](O)[C@H]1O,c1cc(c(cc1/C=C/C(=O)O[C@@H]2C[C@@](C[C@H]([C@H]2O)O)(C(=O)O)O)O)O,O[C@@H]1C[C@@](C[C@H]([C@@H]1O)OC(=O)/C=C/C=2C=CC(=C(C2)O)O)(O)C(=O)O,-0.9473
CWVVTLVAKKLKRS-UHFFFAOYSA-N,,COc1cc2ncnc(Nc3cccc(C(F)(F)F)c3)c2cc1OCCCN1CCOCC1,COc1cc2c(cc1OCCCN3CCOCC3)c(ncn2)Nc4cccc(c4)C(F)(F)F,COC=1C=C2N=CN=C(C2=CC1OCCCN3CCOCC3)NC=4C=CC=C(C4)C(F)(F)F,-3.7447275
CXBKAPWYIGDHEC-UHFFFAOYSA-N,,COc1cc2c(Nc3cnc(CNc4cccc(F)c4)nc3)ncnc2cc1OCCCN1CCCC(CO)C1,COc1cc2c(cc1OCCCN3CCCC(C3)CO)ncnc2Nc4cnc(nc4)CNc5cccc(c5)F,COC=1C=C2C(=NC=NC2=CC1OCCCN3CCCC(C3)CO)NC=4C=NC(=NC4)CNC=5C=CC=C(C5)F,-3.9208187999999993
CXBMCYHAMVGWJQ-UHFFFAOYSA-N,tetramethrin; phthaltrin,CC(C)=C[C@@H]1[C@@H](C(=O)OCN2C(=O)C3=C(CCCC3)C2=O)C1(C)C,CC(=C[C@@H]1[C@H](C1(C)C)C(=O)OCN2C(=O)C3=C(C2=O)CCCC3)C,N1(C(=O)C2=C(C1=O)CCCC2)COC(=O)C3C(C3C=C(C)C)(C)C,-5.2579
CXCZAUJRCJFYLW-UHFFFAOYSA-N,,CC(CC(CS(=O)(=O)N1CCC(c2ccc(F)cc2)CC1)N(O)C=O)c1ccncc1,CC(CC(CS(=O)(=O)N1CCC(CC1)c2ccc(cc2)F)N(C=O)O)c3ccncc3,CC(CC(CS(=O)(=O)N1CCC(CC1)C=2C=CC(=CC2)F)N(O)C=O)C=3C=CN=CC3,-4.552842
CXGIOBKRXXFPQV-UHFFFAOYSA-N,,Clc1ccc2c(c1Nc1ncnc3cc(OCCN4CCOCC4)cc(OC4CCOCC4)c13)OCO2,c1cc(c(c2c1OCO2)Nc3c4c(cc(cc4OC5CCOCC5)OCCN6CCOCC6)ncn3)Cl,ClC=1C=CC2=C(C1NC=3N=CN=C4C3C(=CC(=C4)OCCN5CCOCC5)OC6CCOCC6)OCO2,-4.2580609
CXGTZJYQWSUFET-UHFFFAOYSA-N,,CCOC(Cc1ccc(OCCc2ccc(OS(C)(=O)=O)cc2)cc1)C(=O)O,CCOC(Cc1ccc(cc1)OCCc2ccc(cc2)OS(=O)(=O)C)C(=O)O,CCOC(CC=1C=CC(=CC1)OCCC=2C=CC(=CC2)OS(=O)(=O)C)C(=O)O,-2.30103
CXJSOEPQXUCJSA-UHFFFAOYSA-N,PYRIDAPHENTHION,CCOP(=S)(OCC)Oc1ccc(=O)n(-c2ccccc2)n1,CCOP(=S)(OCC)Oc1ccc(=O)n(n1)c2ccccc2,N1(N=C(C=CC1=O)OP(=S)(OCC)OCC)C2=CC=CC=C2,-3.5319
CXKCZFDUOYMOOP-UHFFFAOYSA-N,"3,5-DICHLOROBENZOIC ACID",O=C(O)c1cc(Cl)cc(Cl)c1,c1c(cc(cc1Cl)Cl)C(=O)O,OC(=O)C=1C=C(C=C(C1)Cl)Cl,-3.114
CXKHTVXLNXAUJY-UHFFFAOYSA-N,,CC(C)(C)OC(=O)C(CCS(C)(=O)=O)NC(=O)c1ccc(COC(Cn2ccnc2)c2ccc(F)cc2)cc1-c1ccc(F)cc1,CC(C)(C)OC(=O)C(CCS(=O)(=O)C)NC(=O)c1ccc(cc1c2ccc(cc2)F)COC(Cn3ccnc3)c4ccc(cc4)F,CC(C)(C)OC(=O)C(CCS(=O)(=O)C)NC(=O)C=1C=CC(=CC1C=2C=CC(=CC2)F)COC(CN3C=CN=C3)C=4C=CC(=CC4)F,-4.8153086
CXLSDGHWWXDHEE-UHFFFAOYSA-N,Thu Jan 03 00:00:00 GMT 5428,CCCCC(C(=O)O)N(C)C,CCCCC(C(=O)O)N(C)C,O=C(O)C(N(C)C)CCCC,0.493
CXMXRPHRNRROMY-UHFFFAOYSA-N,"sebacic  acid;  decanedioic  acid;  1,8-octanedicarboxylic acid",O=C(O)CCCCCCCCC(=O)O,C(CCCCC(=O)O)CCCC(=O)O,OC(=O)CCCCCCCCC(=O)O,-1.400429275
CXNPLSGKWMLZPZ-UHFFFAOYSA-N,,CN(CCC(N)CC(=O)NC1C=CC(n2ccc(N)nc2=O)OC1C(=O)O)C(=N)N,CN(CCC(CC(=O)NC1C=CC(OC1C(=O)O)n2ccc(nc2=O)N)N)C(=N)N,C(C(CCN(C(=N)N)C)N)C(=O)NC1C(OC(C=C1)N2C=CC(=NC2=O)N)C(=O)O,-4.149
CXNQCDZUHZWDIY-UHFFFAOYSA-N,,CN(C)CCNS(=O)(=O)c1ccc(Nc2ncc(Cl)c(-c3cnc4ccccn34)n2)cc1,CN(C)CCNS(=O)(=O)c1ccc(cc1)Nc2ncc(c(n2)c3cnc4n3cccc4)Cl,CN(C)CCNS(=O)(=O)C=1C=CC(=CC1)NC=2N=CC(=C(N2)C3=CN=C4N3C=CC=C4)Cl,-6.0
CXOFVDLJLONNDW-UHFFFAOYSA-M,phenytoin sodium,O=C1[N-]C(=O)C(c2ccccc2)(c2ccccc2)N1,c1ccc(cc1)C2(C(=O)[N-]C(=O)N2)c3ccccc3,C1=CC=C(C=C1)C2(C(=O)[N-]C(=O)N2)C3=CC=CC=C3,-3.932996658
CXOFVDLJLONNDW-UHFFFAOYSA-N,"phenytoin;  5,5-diphenylhydantoin:  5,5-diphenylimidazolidine-2,4dione",O=C1NC(=O)C(c2ccccc2)(c2ccccc2)N1,c1ccc(cc1)C2(C(=O)NC(=O)N2)c3ccccc3,O=C1NC(=O)NC1(C=2C=CC=CC2)C=3C=CC=CC3,-3.99
CXOIRUKCQXCKPR-UHFFFAOYSA-N,,COCCNS(=O)(=O)c1ccc(Nc2ncc(Br)c(-c3cnc(C)n3C)n2)cc1,Cc1ncc(n1C)c2c(cnc(n2)Nc3ccc(cc3)S(=O)(=O)NCCOC)Br,COCCNS(=O)(=O)C=1C=CC(=CC1)NC=2N=CC(=C(N2)C3=CN=C(N3C)C)Br,-3.926936
CXOXHMZGEKVPMT-UHFFFAOYSA-N,clobazam,CN1C(=O)CC(=O)N(c2ccccc2)c2cc(Cl)ccc21,CN1c2ccc(cc2N(C(=O)CC1=O)c3ccccc3)Cl,CN1C(=O)CC(=O)N(C2=C1C=CC(=C2)Cl)C3=CC=CC=C3,-3.575101208
CXRDWLXESJZXTJ-UHFFFAOYSA-N,,CCCC(C)n1nc(O)c2c(c1=O)Cc1ccc(Cl)cc1N2,CCCC(C)n1c(=O)c2c(c(n1)O)Nc3cc(ccc3C2)Cl,CCCC(C)N1N=C(C2=C(C1=O)CC3=C(C=C(C=C3)Cl)N2)O,-2.8708356
CXSKVBXJDSVPKS-UHFFFAOYSA-N,1-(4-methoxyphenyl)-2-[(3-methoxyphenyl)sulfanyl]ethan-1-one,COc1ccc(C(=O)CSc2cccc(OC)c2)cc1,COc1ccc(cc1)C(=O)CSc2cccc(c2)OC,COC=1C=CC(=CC1)C(=O)CSC=2C=CC=C(C2)OC,-5.284862633
CXVGEDCSTKKODG-UHFFFAOYSA-N,5-benzoyl-4-hydroxy-2-methoxybenzene-1-sulfonic acid,COc1cc(O)c(C(=O)c2ccccc2)cc1S(=O)(=O)O,COc1cc(c(cc1S(=O)(=O)O)C(=O)c2ccccc2)O,S(=O)(=O)(C1=CC(=C(C=C1OC)O)C(=O)C2=CC=CC=C2)O,-0.022384851
CXWXQJXEFPUFDZ-UHFFFAOYSA-N,tetralin,c1ccc2c(c1)CCCC2,c1ccc2c(c1)CCCC2,C=12C(=CC=CC1)CCCC2,-3.4680386519999997
CXYGHMXUYKGXHL-UHFFFAOYSA-N,,COCCOCCOc1cc2ncnc(Oc3ccc4[nH]c(C)cc4c3)c2cc1OC,Cc1cc2cc(ccc2[nH]1)Oc3c4cc(c(cc4ncn3)OCCOCCOC)OC,COCCOCCOC=1C=C2N=CN=C(C2=CC1OC)OC=3C=CC=4NC(=CC4C3)C,-4.2924298
CYALPPDAHYBNHT-UHFFFAOYSA-N,,N#Cc1ccc(NC(=O)COc2cccc3cnccc23)cc1C(F)(F)F,c1cc2cnccc2c(c1)OCC(=O)Nc3ccc(c(c3)C(F)(F)F)C#N,FC(F)(F)C=1C=C(C=CC1C#N)NC(=O)COC=2C=CC=C3C2C=CN=C3,-6.619788799999999
CYAMALCPSPPOLE-UHFFFAOYSA-N,,COc1ccc(Nc2ncc(Cl)c(Nc3cc(C)n[nH]3)n2)cn1,Cc1cc([nH]n1)Nc2c(cnc(n2)Nc3ccc(nc3)OC)Cl,COC=1C=CC(=CN1)NC=2N=CC(=C(N2)NC3=CC(=NN3)C)Cl,-5.4828041
CYDMQBQPVICBEU-UHFFFAOYSA-N,Chlortetracycline,CN(C)C1C(O)=C(C(N)=O)C(=O)C2(O)C(O)=C3C(=O)c4c(O)ccc(Cl)c4C(C)(O)C3CC12,CC1(c2c(ccc(c2C(=O)C3=C(C4(C(CC31)C(C(=C(C4=O)C(=O)N)O)N(C)C)O)O)O)Cl)O,O=C(N)C1=C(C(C2C(C1=O)(C(=C3C(C2)C(C4=C(C(=CC=C4Cl)O)C3=O)(O)C)O)O)N(C)C)O,-2.8805
CYDZMDOLVUBPNL-UHFFFAOYSA-N,"7-chloro-5-(2-chlorophenyl)-2-oxo-2,3-dihydro-1H-1,4-benzodiazepin-3-yl acetate",CC(=O)OC1N=C(c2ccccc2Cl)c2cc(Cl)ccc2NC1=O,CC(=O)OC1C(=O)Nc2ccc(cc2C(=N1)c3ccccc3Cl)Cl,CC(=O)OC1N=C(C=2C=C(C=CC2NC1=O)Cl)C=3C=CC=CC3Cl,-5.028833462
CYEJSYGBYQRTPJ-UHFFFAOYSA-N,SODIUM 2-BUTYLOCTYL SULFATE,CCCCCCC(CCCC)COS(=O)(=O)O,CCCCCCC(CCCC)COS(=O)(=O)O,CCCCCCC(CCCC)COS(=O)(=O)O,0.14209366199999998
CYEKUDPFXBLGHH-UHFFFAOYSA-N,"Phenol, 3-(1,1-dimethylethyl)-",CC(C)(C)c1cccc(O)c1,CC(C)(C)c1cccc(c1)O,CC(C)(C)C=1C=CC=C(C1)O,-1.8612
CYEQODIYTZSLEN-UHFFFAOYSA-N,,CN(C)CCOc1ccc(-c2cc(NC(N)=O)c(C(N)=O)s2)cc1,CN(C)CCOc1ccc(cc1)c2cc(c(s2)C(=O)N)NC(=O)N,CN(C)CCOC=1C=CC(=CC1)C2=CC(=C(S2)C(=O)N)NC(=O)N,-4.455932
CYESCLHCWJKRKM-UHFFFAOYSA-N,,NC(=O)Nc1ccc(Cl)c(Cl)c1,c1cc(c(cc1NC(=O)N)Cl)Cl,ClC=1C=C(C=CC1Cl)NC(=O)N,-2.9619999999999997
CYFLXLSBHQBMFT-UHFFFAOYSA-N,"sulfamoxole;  2-sulfa-4,5-dimethyloxazole",Cc1nc(NS(=O)(=O)c2ccc(N)cc2)oc1C,Cc1c(oc(n1)NS(=O)(=O)c2ccc(cc2)N)C,S(=O)(=O)(NC=1OC(=C(N1)C)C)C=2C=CC(=CC2)N,-2.33
CYGYBSYNHSESQO-UHFFFAOYSA-N,,O=C(c1c(Cl)cccc1Cl)N1CCC(Cc2ccccc2)CC1,c1ccc(cc1)CC2CCN(CC2)C(=O)c3c(cccc3Cl)Cl,ClC=1C=CC=C(C1C(=O)N2CCC(CC2)CC=3C=CC=CC3)Cl,-4.920818799999999
CYHLHUZPQKUJRA-UHFFFAOYSA-N,,NC(=O)COc1ccc(OCCNCC(O)COc2ccccc2)cc1,c1ccc(cc1)OCC(CNCCOc2ccc(cc2)OCC(=O)N)O,NC(=O)COC=1C=CC(=CC1)OCCNCC(O)COC=2C=CC=CC2,-3.1782644
CYIDZMCFTVVTJO-UHFFFAOYSA-N,PYROMELLITIC ACID,O=C(O)c1cc(C(=O)O)c(C(=O)O)cc1C(=O)O,c1c(c(cc(c1C(=O)O)C(=O)O)C(=O)O)C(=O)O,OC(=O)C=1C=C(C(=CC1C(=O)O)C(=O)O)C(=O)O,-1.959233762
CYJIGBWVVZHXRF-UHFFFAOYSA-N,"disodium 2-amino-4,6-dinitrophenol 4-nitroaniline 8-{2-[(1E)-2-oxido-4-oxocyclohexa-2,5-dien-1-ylidene]hydrazin-1-yl}-3,6-disulfonaphthalen-1-olate iron",O=C1C=C/C(=N\Nc2cc(S(=O)(=O)O)cc3cc(S(=O)(=O)O)cc(O)c23)C(O)=C1,c1c2cc(cc(c2c(cc1S(=O)(=O)O)N/N=C/3\C=CC(=O)C=C3O)O)S(=O)(=O)O,OC\1=CC(=O)C=C/C1=N\NC=2C=C(C=C3C2C(=CC(=C3)S(=O)(=O)O)O)S(=O)(=O)O,-1.307773263
CYJJLCDCWVZEDZ-UHFFFAOYSA-N,"1-Naphthalenesulfonic acid, 8-amino-",Nc1cccc2cccc(S(=O)(=O)O)c12,c1cc2cccc(c2c(c1)N)S(=O)(=O)O,O=S(=O)(O)C1=CC=CC2=C1C(=CC=C2)N,-3.0589999999999997
CYJLFSMDQYFKRD-UHFFFAOYSA-N,N-(2-ethylhexyl)-7-methyloctanamide,CCCCC(CC)CNC(=O)CCCCCC(C)C,CCCCC(CC)CNC(=O)CCCCCC(C)C,CCCCC(CC)CNC(=O)CCCCCC(C)C,-5.731772627000001
CYKAGXAJJFUETC-UHFFFAOYSA-N,Salinazid,O=C1C=CC=C/C1=C/NNC(=O)c1ccncc1,c1cnccc1C(=O)NN/C=C\2/C=CC=CC2=O,O=C1/C(=C\NNC(=O)C2=CC=NC=C2)/C=CC=C1,-3.6830000000000003
CYKFQSXTIVGYDT-UHFFFAOYSA-N,"9-Octadecenoic acid, 12-(sulfooxy)-, (Z)-",CCCCCCC(C/C=C\CCCCCCCC(=O)O)OS(=O)(=O)O,CCCCCCC(C/C=C\CCCCCCCC(=O)O)OS(=O)(=O)O,S(=O)(=O)(OC(C/C=C/CCCCCCCC(=O)O)CCCCCC)O,-0.5781
CYLYVXPHAQLXFG-UHFFFAOYSA-N,N-[4-(pyridin-2-ylsulfamoyl)phenyl]acetamide,CC(=O)Nc1ccc(S(=O)(=O)Nc2ccccn2)cc1,CC(=O)Nc1ccc(cc1)S(=O)(=O)Nc2ccccn2,S(=O)(=O)(C1=CC=C(C=C1)NC(=O)C)NC2=CC=CC=N2,-3.7162
CYMQIVHWOSPEJC-UHFFFAOYSA-N,,CCN(C(=O)Cc1ccc(S(C)(=O)=O)cc1)C1CCN(CCC(NC(=O)c2cccc(F)c2)c2ccccc2)CC1,CCN(C1CCN(CC1)CCC(c2ccccc2)NC(=O)c3cccc(c3)F)C(=O)Cc4ccc(cc4)S(=O)(=O)C,CCN(C1CCN(CC1)CCC(NC(=O)C=2C=CC=C(C2)F)C=3C=CC=CC3)C(=O)CC=4C=CC(=CC4)S(=O)(=O)C,-3.5199931
CYQFCXCEBYINGO-UHFFFAOYSA-N,delta(1)-THC,CCCCCc1cc(O)c2c(c1)OC(C)(C)C1CCC(C)=CC21,CCCCCc1cc(c2c(c1)OC(C3C2C=C(CC3)C)(C)C)O,C=12C(=CC(=CC1O)CCCCC)OC(C3C2C=C(CC3)C)(C)C,-2.05
CYUWXRMKPFHTCK-UHFFFAOYSA-N,,Cc1cc(C)cc(-c2[nH]c3ccc(C(C)C)cc3c2CCN(C)C)c1,Cc1cc(cc(c1)c2c(c3cc(ccc3[nH]2)C(C)C)CCN(C)C)C,CC(C)C=1C=CC=2NC(=C(C2C1)CCN(C)C)C=3C=C(C=C(C3)C)C,-4.1811146
CYVGAJHMMVDTDZ-UHFFFAOYSA-N,"2-Methyl-4-(2,2,3-trimethylcyclopent-3-en-1-yl)butan-1-ol",CC1=CCC(CCC(C)CO)C1(C)C,CC1=CCC(C1(C)C)CCC(C)CO,CC(CO)CCC1CC=C(C1(C)C)C,-3.842873203
CYVRVCFMAVJKPS-UHFFFAOYSA-N,,COc1cc2ncnc(Nc3ccc(Cl)cc3F)c2cc1OCCCN1CCCCC1,COc1cc2c(cc1OCCCN3CCCCC3)c(ncn2)Nc4ccc(cc4F)Cl,COC=1C=C2N=CN=C(C2=CC1OCCCN3CCCCC3)NC=4C=CC(=CC4F)Cl,-4.552842
CYXKNKQEMFBLER-UHFFFAOYSA-N,perhexiline,C1CCC(C(CC2CCCCN2)C2CCCCC2)CC1,C1CCC(CC1)C(CC2CCCCN2)C3CCCCC3,C1CCC(CC1)C(CC2CCCCN2)C3CCCCC3,-6.665096087
CYXMOAZSOPXQOD-UHFFFAOYSA-N,ditolyl ether,Cc1ccccc1Oc1ccccc1C,Cc1ccccc1Oc2ccccc2C,O(C=1C(=CC=CC1)C)C=2C(=CC=CC2)C,-4.85
CYZFQHXPBRYSII-UHFFFAOYSA-N,,COCCCNS(=O)(=O)c1ccc(Nc2cc(-c3ccncc3)n[nH]2)cc1,COCCCNS(=O)(=O)c1ccc(cc1)Nc2cc(n[nH]2)c3ccncc3,COCCCNS(=O)(=O)C=1C=CC(=CC1)NC2=CC(=NN2)C=3C=CN=CC3,-4.19382
CZACKYMYCASXIR-UHFFFAOYSA-N,,COc1ccccc1Oc1coc2cc(O)ccc2c1=O,COc1ccccc1Oc2coc3cc(ccc3c2=O)O,COC=1C=CC=CC1OC2=COC=3C=C(C=CC3C2=O)O,-4.8860566
CZAUMIGWDFREBR-UHFFFAOYSA-N,1-(6-methyl-2-oxohexahydropyrimidin-4-yl)urea,CC1CC(NC(N)=O)NC(=O)N1,CC1CC(NC(=O)N1)NC(=O)N,CC1CC(NC(=O)N1)NC(=O)N,-1.5312117159999998
CZCBTSFUTPZVKJ-UHFFFAOYSA-N,4-methyl-2-(2-methylprop-1-en-1-yl)oxane,CC(C)=CC1CC(C)CCO1,CC1CCOC(C1)C=C(C)C,CC1CCOC(C1)C=C(C)C,-2.224222896
CZFFBEXEKNGXKS-UHFFFAOYSA-N,raltegravir potassium,Cc1nnc(C(=O)NC(C)(C)c2nc(C(=O)NCc3ccc(F)cc3)c(O)c(=O)n2C)o1,Cc1nnc(o1)C(=O)NC(C)(C)c2nc(c(c(=O)n2C)O)C(=O)NCc3ccc(cc3)F,CC1=NN=C(O1)C(=O)NC(C)(C)C2=NC(=C(C(=O)N2C)O)C(=O)NCC3=CC=C(C=C3)F,-0.83224797
CZGCEKJOLUNIFY-UHFFFAOYSA-N,p-Chloronitrobenzene,O=[N+]([O-])c1ccc(Cl)cc1,c1cc(ccc1[N+](=O)[O-])Cl,O=[N+]([O-])C=1C=CC(=CC1)Cl,-2.8453
CZIHNRWJTSTCEX-UHFFFAOYSA-N,N-2-Fluorenylacetamide,CC(=O)Nc1ccc2c(c1)Cc1ccccc1-2,CC(=O)Nc1ccc-2c(c1)Cc3c2cccc3,O=C(NC=1C=C2C(=CC1)C=3C(=CC=CC3)C2)C,-4.2375
CZIJJWOYYIQVNP-UHFFFAOYSA-N,,O=C(NCCN1CCCC1)c1ccc(Nc2ncc(Br)c(Nc3cccc(F)c3)n2)cc1,c1cc(cc(c1)F)Nc2c(cnc(n2)Nc3ccc(cc3)C(=O)NCCN4CCCC4)Br,FC=1C=CC=C(C1)NC=2N=C(N=CC2Br)NC=3C=CC(=CC3)C(=O)NCCN4CCCC4,-4.9586073
CZJGCEGNCSGRBI-UHFFFAOYSA-N,"2(1H)-Pyrimidinone, 4-amino-5-ethyl-",CCc1cnc(=O)[nH]c1N,CCc1cnc(=O)[nH]c1N,N1C(=C(C=NC1=O)CC)N,-1.01985
CZJYEGQLZYABAT-UHFFFAOYSA-N,,Cc1cccc(C(=O)NCCS(=O)(=O)Cc2c(F)cccc2Cl)c1,Cc1cccc(c1)C(=O)NCCS(=O)(=O)Cc2c(cccc2Cl)F,CC=1C=CC=C(C1)C(=O)NCCS(=O)(=O)CC=2C(=CC=CC2Cl)F,-4.853872
CZMRCDWAGMRECN-UHFFFAOYSA-N,Sucrose,OC[C@H]1O[C@H](O[C@]2(CO)O[C@H](CO)[C@@H](O)[C@@H]2O)[C@H](O)[C@@H](O)[C@@H]1O,C([C@@H]1[C@H]([C@@H]([C@H]([C@H](O1)O[C@]2([C@H]([C@@H]([C@H](O2)CO)O)O)CO)O)O)O)O,OC[C@H]1O[C@@H]([C@@H]([C@H]([C@@H]1O)O)O)O[C@@]2(O[C@@H]([C@H]([C@@H]2O)O)CO)CO,0.79
CZNRFEXEPBITDS-UHFFFAOYSA-N,"2,5-bis(1,1-dimethylpropyl)benzene-1,4-diol",CCC(C)(C)c1cc(O)c(C(C)(C)CC)cc1O,CCC(C)(C)c1cc(c(cc1O)C(C)(C)CC)O,CCC(C)(C)C=1C=C(C(=CC1O)C(C)(C)CC)O,-6.495756559