inchikey,Name,SMILES_stand,SMILES,kekSmiles,logS
CGIPTMPRAPTQTM-UHFFFAOYSA-N,"Butanoic acid, L-2-aminobutanoyl-L-2-aminobutano",CCC(N)C(=O)NC(CC)C(=O)NC(CC)C(=O)NC(CC)C(=O)NC(CC)C(=O)NC(CC)C(=O)O,CCC(C(=O)NC(CC)C(=O)NC(CC)C(=O)NC(CC)C(=O)NC(CC)C(=O)NC(CC)C(=O)O)N,O=C(NC(C(=O)NC(C(=O)NC(C(=O)O)CC)CC)CC)C(NC(=O)C(NC(=O)C(N)CC)CC)CC,-2.682
CGJACPXDSDADOD-UHFFFAOYSA-N,,COc1cc2c(Nc3ccc(NC(=O)c4ccccc4)cc3)ncnc2cc1OCC1CCN(CCO)CC1,COc1cc2c(cc1OCC3CCN(CC3)CCO)ncnc2Nc4ccc(cc4)NC(=O)c5ccccc5,COC=1C=C2C(=NC=NC2=CC1OCC3CCN(CC3)CCO)NC=4C=CC(=CC4)NC(=O)C=5C=CC=CC5,-4.468521099999999
CGLQOIMEUPORRI-UHFFFAOYSA-N,"DIPROPYLENE GLYCOL, DIBENZOATE",CC(COC(=O)c1ccccc1)OC(C)COC(=O)c1ccccc1,CC(COC(=O)c1ccccc1)OC(C)COC(=O)c2ccccc2,C(=O)(OCC(OC(COC(=O)C1=CC=CC=C1)C)C)C=2C=CC=CC2,-4.3580000000000005
CGMDERMTCPBQPQ-UHFFFAOYSA-N,,Cc1ccc(NC(=O)c2cccc(N3CCOCC3)c2)cc1C(=O)Nc1ccc(NCC(C)(C)CN(C)C)nc1,Cc1ccc(cc1C(=O)Nc2ccc(nc2)NCC(C)(C)CN(C)C)NC(=O)c3cccc(c3)N4CCOCC4,CN(C)CC(C)(C)CNC=1C=CC(=CN1)NC(=O)C=2C=C(C=CC2C)NC(=O)C=3C=CC=C(C3)N4CCOCC4,-4.2146702000000005
CGMOOAUESLSUKM-UHFFFAOYSA-N,2-benzylheptan-1-ol,CCCCCC(CO)Cc1ccccc1,CCCCCC(Cc1ccccc1)CO,CCCCCC(CO)CC=1C=CC=CC1,-3.843134281
CGRTZESQZZGAAU-UHFFFAOYSA-N,"2-[9-(1-{[3-(3-tert-butyl-4-hydroxy-5-methylphenyl)propanoyl]oxy}-2-methylpropan-2-yl)-2,4,8,10-tetraoxaspiro[5.5]undecan-3-yl]-2-methylpropyl 3-(3-tert-butyl-4-hydroxy-5-methylphenyl)propanoate",Cc1cc(CCC(=O)OCC(C)(C)C2OCC3(CO2)COC(C(C)(C)COC(=O)CCc2cc(C)c(O)c(C(C)(C)C)c2)OC3)cc(C(C)(C)C)c1O,Cc1cc(cc(c1O)C(C)(C)C)CCC(=O)OCC(C)(C)C2OCC3(CO2)COC(OC3)C(C)(C)COC(=O)CCc4cc(c(c(c4)C(C)(C)C)O)C,CC=1C=C(C=C(C1O)C(C)(C)C)CCC(=O)OCC(C)(C)C2OCC3(CO2)COC(OC3)C(C)(C)COC(=O)CCC=4C=C(C(=C(C4)C(C)(C)C)O)C,-8.267871782
CGSLYBDCEGBZCG-UHFFFAOYSA-N,2-ETHYLHEXYL DIPHENYL PHOSPHATE,CCCCC(CC)COP(=O)(Oc1ccccc1)Oc1ccccc1,CCCCC(CC)COP(=O)(Oc1ccccc1)Oc2ccccc2,P(=O)(OC1=CC=CC=C1)(OC2=CC=CC=C2)OCC(CC)CCCC,-5.2804
CGTMKLDMVFZJPA-UHFFFAOYSA-N,"Benzenesulfonamide, 4-amino-N-(5,6,7,8-tetrahydr",CC12CCC(c3cnc(NS(=O)(=O)c4ccc(N)cc4)nc31)C2(C)C,CC1(C2CCC1(c3c2cnc(n3)NS(=O)(=O)c4ccc(cc4)N)C)C,CC12CCC(C1(C)C)C3=C2N=C(N=C3)NS(=O)(=O)C4=CC=C(C=C4)N,-4.0785
CGTWCAVZZBLHQH-UHFFFAOYSA-N,CYCLOPROTHRIN,CCOc1ccc(C2(C(=O)OC(C#N)c3cccc(Oc4ccccc4)c3)CC2(Cl)Cl)cc1,CCOc1ccc(cc1)C2(CC2(Cl)Cl)C(=O)OC(C#N)c3cccc(c3)Oc4ccccc4,ClC1(C(C1)(C2=CC=C(C=C2)OCC)C(=O)OC(C#N)C3=CC=CC(=C3)OC4=CC=CC=C4)Cl,-6.72415
CGWFVEFHQWJOKI-UHFFFAOYSA-N,ethyl 2-(benzoyl)benzoate,CCOC(=O)c1ccccc1C(=O)c1ccccc1,CCOC(=O)c1ccccc1C(=O)c2ccccc2,CCOC(=O)C=1C=CC=CC1C(=O)C=2C=CC=CC2,-3.4053
CGWWIKBLUCSUCC-UHFFFAOYSA-N,"2H-1,2,3-Triazole-4-carboxylic acid, 5-(2-carbox",O=C(O)c1ccccc1-c1nn(-c2ccccc2)nc1C(=O)O,c1ccc(cc1)n2nc(c(n2)C(=O)O)c3ccccc3C(=O)O,C=1(C(=NN(N1)C=2C=CC=CC2)C(=O)O)C3=C(C=CC=C3)C(=O)O,-2.189
CGXVEEBFNIFKHB-UHFFFAOYSA-N,,COc1cc2c(N/C(=N\CC(=O)NC(C)C)Nc3c(C)cccc3C)ncnc2cc1OCCN1CCOCC1,Cc1cccc(c1N/C(=N/CC(=O)NC(C)C)/Nc2c3cc(c(cc3ncn2)OCCN4CCOCC4)OC)C,COC=1C=C2C(=NC=NC2=CC1OCCN3CCOCC3)N/C(=N\CC(=O)NC(C)C)/NC=4C(=CC=CC4C)C,-3.19382
CGYGETOMCSJHJU-UHFFFAOYSA-N,2-Chloronapthalene,Clc1ccc2ccccc2c1,c1ccc2cc(ccc2c1)Cl,ClC=1C=CC=2C=CC=CC2C1,-4.1415
CHAJGTXATAHBKY-UHFFFAOYSA-N,,Cc1cc(Nc2nc(NCc3ccncc3)ncc2Br)[nH]n1,Cc1cc([nH]n1)Nc2c(cnc(n2)NCc3ccncc3)Br,CC=1C=C(NN1)NC=2N=C(N=CC2Br)NCC=3C=CN=CC3,-4.408935400000001
CHBUFRFETPYQCI-UHFFFAOYSA-N,"Benzamide, 3,5-dinitro-N-phenyl-N-hydroxy-",O=C(c1cc([N+](=O)[O-])cc([N+](=O)[O-])c1)N(O)c1ccccc1,c1ccc(cc1)N(C(=O)c2cc(cc(c2)[N+](=O)[O-])[N+](=O)[O-])O,[N+](=O)(C1=CC(=CC(=C1)C(=O)N(C2=CC=CC=C2)O)[N+](=O)[O-])[O-],-3.63685
CHFPMKWRUSRRDJ-UHFFFAOYSA-N,,COc1cc2c(Nc3cnc(C(=O)Nc4cccc(C#N)c4)nc3)ncnc2cc1OCCCN1CCOCC1,COc1cc2c(cc1OCCCN3CCOCC3)ncnc2Nc4cnc(nc4)C(=O)Nc5cccc(c5)C#N,COC=1C=C2C(=NC=NC2=CC1OCCCN3CCOCC3)NC=4C=NC(=NC4)C(=O)NC=5C=CC=C(C5)C#N,-6.886056599999999
CHGABYKKOPIDQK-UHFFFAOYSA-N,,O=C1OC(COc2cnsn2)CN1c1ccc(C2=CCS(=O)(=O)CC2)c(F)c1,c1cc(c(cc1N2CC(OC2=O)COc3cnsn3)F)C4=CCS(=O)(=O)CC4,FC=1C=C(C=CC1C2=CCS(=O)(=O)CC2)N3CC(OC3=O)COC=4C=NSN4,-5.5086383
CHHYIOPCGSKEJW-UHFFFAOYSA-N,,O=C1OC(CO)CN1c1ccc(C2=CCS(=O)(=O)CC2)c(F)c1,c1cc(c(cc1N2CC(OC2=O)CO)F)C3=CCS(=O)(=O)CC3,OCC1CN(C(=O)O1)C=2C=CC(=C(C2)F)C3=CCS(=O)(=O)CC3,-3.2365720000000002
CHIFOSRWCNZCFN-UHFFFAOYSA-N,"pendimethalin;  n-(1-ethylpropyl)-2,6-dinitro-3,4-xylidine",CCC(CC)Nc1c([N+](=O)[O-])cc(C)c(C)c1[N+](=O)[O-],CCC(CC)Nc1c(cc(c(c1[N+](=O)[O-])C)C)[N+](=O)[O-],CCC(CC)NC=1C(=CC(=C(C1[N+](=O)[O-])C)C)[N+](=O)[O-],-5.97205
CHIHQLCVLOXUJW-UHFFFAOYSA-N,"BENZOIC ACID, ANHYDRIDE",O=C(OC(=O)c1ccccc1)c1ccccc1,c1ccc(cc1)C(=O)OC(=O)c2ccccc2,O=C(OC(=O)C=1C=CC=CC1)C=2C=CC=CC2,-4.3548
CHISZLOVTPVOGH-UHFFFAOYSA-N,,O=C(Nc1ccc2c(c1)-c1ccccc1S2(=O)=O)N1CCC(F)(F)CC1,c1ccc2c(c1)-c3cc(ccc3S2(=O)=O)NC(=O)N4CCC(CC4)(F)F,FC1(CCN(CC1)C(=O)NC=2C=CC3=C(C2)C=4C=CC=CC4S3(=O)=O)F,-5.6777807000000005
CHJANFHEMULRIP-UHFFFAOYSA-N,,CCS(=O)(=O)c1ccc(NC(=O)C(C)(O)C(F)(F)F)c(Cl)c1I,CCS(=O)(=O)c1ccc(c(c1I)Cl)NC(=O)C(C)(C(F)(F)F)O,CCS(=O)(=O)C=1C=CC(=C(C1I)Cl)NC(=O)C(C)(O)C(F)(F)F,-4.2441251
CHJCAPPVUWJTCJ-UHFFFAOYSA-N,N-BUTANOYL-N'-ISONICOTINOYLHYDRAZINE,CCCC(=O)NNC(=O)c1ccncc1,CCCC(=O)NNC(=O)c1ccncc1,CCCC(=O)NNC(=O)C1=CC=NC=C1,-0.32
CHKIFUUQYKCJGG-UHFFFAOYSA-N,,Cc1cc(N)c2cc(NC(=O)/C=C/C(=O)NCc3ccccn3)ccc2n1,Cc1cc(c2cc(ccc2n1)NC(=O)/C=C/C(=O)NCc3ccccn3)N,CC=1C=C(C=2C=C(C=CC2N1)NC(=O)/C=C/C(=O)NCC=3C=CC=CN3)N,-3.3665315000000002
CHMBIJAOCISYEW-UHFFFAOYSA-N,4-aminoacetanilide,CC(=O)Nc1ccc(N)cc1,CC(=O)Nc1ccc(cc1)N,O=C(NC=1C=CC(=CC1)N)C,-0.98
CHNUNORXWHYHNE-UHFFFAOYSA-N,Oxadiazon,CC(C)Oc1cc(-n2nc(C(C)(C)C)oc2=O)c(Cl)cc1Cl,CC(C)Oc1cc(c(cc1Cl)Cl)n2c(=O)oc(n2)C(C)(C)C,ClC=1C(=CC(=C(C1)Cl)N2C(=O)OC(=N2)C(C)(C)C)OC(C)C,-5.69
CHNXZKVNWQUJIB-UHFFFAOYSA-N,Ethisterone,C#C[C@]1(O)CC[C@H]2[C@@H]3CCC4=CC(=O)CC[C@]4(C)[C@H]3CC[C@@]21C,C[C@]12CCC(=O)C=C1CC[C@@H]3[C@@H]2CC[C@]4([C@H]3CC[C@]4(C#C)O)C,O=C1CCC2(C(=C1)CCC3C2CCC4(C3CCC4(C#C)O)C)C,-5.66
CHTHALBTIRVDBM-UHFFFAOYSA-N,"furan-2,5-dicarboxylic acid",O=C(O)c1ccc(C(=O)O)o1,c1cc(oc1C(=O)O)C(=O)O,OC(=O)C=1OC(=CC1)C(=O)O,-2.216311868
CHVCVDZOOTVIIJ-UHFFFAOYSA-N,,CCn1c2ccccc2c2cc(NC(=O)C(C)(C)OC(C)=O)ccc21,CCn1c2ccccc2c3c1ccc(c3)NC(=O)C(C)(C)OC(=O)C,CCN1C=2C=CC=CC2C3=C1C=CC(=C3)NC(=O)C(C)(C)OC(=O)C,-6.0457575
CHZPUASRIDZFPZ-UHFFFAOYSA-N,,O=C(C1CCN(c2cnc(O)nc2)CC1)N1CCN(S(=O)(=O)c2ccc3cc(Cl)ccc3c2)CC1,c1cc(cc2c1cc(cc2)Cl)S(=O)(=O)N3CCN(CC3)C(=O)C4CCN(CC4)c5cnc(nc5)O,OC=1N=CC(=CN1)N2CCC(CC2)C(=O)N3CCN(CC3)S(=O)(=O)C=4C=CC=5C=C(C=CC5C4)Cl,-5.2441251
CIDTWKORZJEHEU-UHFFFAOYSA-N,,CCN(CC)C(=O)C(C)(C)c1ccc2[nH]c(-c3cc(C)cc(C)c3)c(CCN/C(=N\C#N)NCCc3ccccn3)c2c1,CCN(CC)C(=O)C(C)(C)c1ccc2c(c1)c(c([nH]2)c3cc(cc(c3)C)C)CCN/C(=N\C#N)/NCCc4ccccn4,CCN(CC)C(=O)C(C)(C)C=1C=CC=2NC(=C(C2C1)CCN/C(=N\C#N)/NCCC=3C=CC=CN3)C=4C=C(C=C(C4)C)C,-6.49485
CIEXPHRYOLIQQD-UHFFFAOYSA-N,"n(26dimeph)-n-(2furanoyl)alanine,me",COC(=O)C(C)N(C(=O)c1ccco1)c1c(C)cccc1C,Cc1cccc(c1N(C(C)C(=O)OC)C(=O)c2ccco2)C,N(C(=O)C=1OC=CC1)(C2=C(C=CC=C2C)C)C(C(=O)OC)C,-3.117
CIFFBTOJCKSRJY-UHFFFAOYSA-N,"3a,4,7,7a-Tetrahydro-1H-isoindole-1,3(2H)-dione",O=C1NC(=O)C2CC=CCC12,C1C=CCC2C1C(=O)NC2=O,O=C1NC(=O)C2C1CC=CC2,-1.093045709
CIFWZNRJIBNXRE-UHFFFAOYSA-N,mepanipyrim;  2-anilino-4-methyl-6-(1-propynyl)pyrimidine,CC#Cc1cc(C)nc(Nc2ccccc2)n1,CC#Cc1cc(nc(n1)Nc2ccccc2)C,CC#CC=1C=C(N=C(N1)NC=2C=CC=CC2)C,-4.857
CIGDFDXLLBAZMB-UHFFFAOYSA-N,,CCN(c1ccc(C(F)(F)F)cn1)S(=O)(=O)c1ccc(NC(=O)C(C)(O)C(F)(F)F)c(Cl)c1,CCN(c1ccc(cn1)C(F)(F)F)S(=O)(=O)c2ccc(c(c2)Cl)NC(=O)C(C)(C(F)(F)F)O,CCN(C=1C=CC(=CN1)C(F)(F)F)S(=O)(=O)C=2C=CC(=C(C2)Cl)NC(=O)C(C)(O)C(F)(F)F,-5.1135093000000005
CIKWKGFPFXJVGW-UHFFFAOYSA-N,"3,9-Acridinediamine, 7-ethoxy-, monohydrate",CCOc1ccc2nc3cc(N)ccc3c(N)c2c1,CCOc1ccc2c(c1)c(c3ccc(cc3n2)N)N,C=12C(=C3C=CC(=CC3=NC1C=CC(=C2)OCC)N)N,-0.5802
CILNBPIMIIDLBZ-UHFFFAOYSA-N,,CCCS(=O)(=O)N1CCC(C(CS(=O)(=O)N2CCN(c3ccc(F)cc3)CC2)N(O)C=O)CC1,CCCS(=O)(=O)N1CCC(CC1)C(CS(=O)(=O)N2CCN(CC2)c3ccc(cc3)F)N(C=O)O,CCCS(=O)(=O)N1CCC(CC1)C(CS(=O)(=O)N2CCN(CC2)C=3C=CC(=CC3)F)N(O)C=O,-4.026872099999999
CILQGDJCXHLODI-UHFFFAOYSA-N,"methyl 2-[(4aS)-3,6-bis(diethylamino)-2,7-dimethyl-4aH-xanthen-9-yl]benzoate",CCN(CC)C1=C[C@@H]2Oc3cc(N(CC)CC)c(C)cc3C(c3ccccc3C(=O)OC)=C2C=C1C,CCN(CC)c1cc2c(cc1C)C(=C3C=C(C(=C[C@@H]3O2)N(CC)CC)C)c4ccccc4C(=O)OC,CCN(CC)C1=C[C@@H]2OC=3C=C(C(=CC3C(=C2C=C1C)C=4C=CC=CC4C(=O)OC)C)N(CC)CC,-7.6871110410000005
CINORQHUKBRYPS-UHFFFAOYSA-N,,COc1cc2c(Nc3cnc(NC(=O)c4ccc(F)cc4)nc3)ncnc2cc1OCC(O)CN1CCCCC1,COc1cc2c(cc1OCC(CN3CCCCC3)O)ncnc2Nc4cnc(nc4)NC(=O)c5ccc(cc5)F,COC=1C=C2C(=NC=NC2=CC1OCC(O)CN3CCCCC3)NC=4C=NC(=NC4)NC(=O)C=5C=CC(=CC5)F,-3.3187587999999995
CIPBJDPIFXKOLJ-UHFFFAOYSA-N,"Heptanoic acid, ester with 2-ethyl-2-(hydroxymethyl)-1,3-propanediol pentanoate",CCCCCCC(=O)OCC(CC)(CO)COC(=O)CCCC,CCCCCCC(=O)OCC(CC)(CO)COC(=O)CCCC,CCCCCCC(=O)OCC(CC)(CO)COC(=O)CCCC,-5.982783513999999
CIPNMNONHVJOHK-UHFFFAOYSA-N,Hydroflumethiazide,CC1CCCC(NC2CCCCC2C(=O)O)C1C,CC1CCCC(C1C)NC2CCCCC2C(=O)O,C(=O)(C1CCCCC1NC2CCCC(C2C)C)O,-2.966
CIQPPBCCBUQKSH-UHFFFAOYSA-N,,COCCCNS(=O)(=O)c1ccc(Nc2ncc(C#N)c(NCC(F)(F)F)n2)cc1,COCCCNS(=O)(=O)c1ccc(cc1)Nc2ncc(c(n2)NCC(F)(F)F)C#N,COCCCNS(=O)(=O)C=1C=CC(=CC1)NC=2N=CC(=C(N2)NCC(F)(F)F)C#N,-6.39794
CIRYYAWURCKBQH-UHFFFAOYSA-N,,COC1CCC2CCOc3ccc(C#N)cc3C(=O)N(C)CC(c3ccccc3)CC(=O)N(C)CC1O2,CN1CC2C(CCC(O2)CCOc3ccc(cc3C(=O)N(CC(CC1=O)c4ccccc4)C)C#N)OC,COC1CCC2CCOC3=CC=C(C=C3C(=O)N(CC(CC(=O)N(CC1O2)C)C4=CC=CC=C4)C)C#N,-4.0
CISPZWKHRGZKTJ-UHFFFAOYSA-N,,N#Cc1ccc(N2CCN(S(=O)(=O)CC(CCCc3ncccn3)N(O)C=O)CC2)nc1,c1cnc(nc1)CCCC(CS(=O)(=O)N2CCN(CC2)c3ccc(cn3)C#N)N(C=O)O,ON(C=O)C(CCCC=1N=CC=CN1)CS(=O)(=O)N2CCN(CC2)C=3C=CC(=CN3)C#N,-2.8022494
CISVVDNATRQDNU-UHFFFAOYSA-N,"4-amino-2,5-dimethoxy-N-methylbenzenesulfonamide",CNS(=O)(=O)c1cc(OC)c(N)cc1OC,CNS(=O)(=O)c1cc(c(cc1OC)N)OC,CNS(=O)(=O)C=1C=C(C(=CC1OC)N)OC,-3.651040282
CITCTUNIFJOTHI-UHFFFAOYSA-N,"2,4-Pteridinediamine",Nc1nc(N)c2nccnc2n1,c1cnc2c(n1)c(nc(n2)N)N,NC1=NC2=NC=CN=C2C(=N1)N,-2.6885
CITMYAMXIZQCJD-UHFFFAOYSA-N,"2,3,4',5-tetrachlorobiphenyl",Clc1ccc(-c2cc(Cl)cc(Cl)c2Cl)cc1,c1cc(ccc1c2cc(cc(c2Cl)Cl)Cl)Cl,ClC=1C=CC(=CC1)C=2C=C(C=C(C2Cl)Cl)Cl,-6.77
CIUQJKNGURZCBS-UHFFFAOYSA-N,,CCOc1cc(CC(=O)Nc2ccc(OC)c(OCC(C)CC(=O)O)c2)cc2oc(Nc3ccccc3)nc12,CCOc1cc(cc2c1nc(o2)Nc3ccccc3)CC(=O)Nc4ccc(c(c4)OCC(C)CC(=O)O)OC,CCOC=1C=C(C=C2C1N=C(O2)NC=3C=CC=CC3)CC(=O)NC=4C=CC(=C(C4)OCC(C)CC(=O)O)OC,-3.19382
CIWBQSYVNNPZIQ-UHFFFAOYSA-N,Betamethasone,CCC(=O)OCC(=O)C1(OC(=O)CC)C(C)CC2C3CCC4=CC(=O)C=CC4(C)C3(F)C(O)CC21C,CCC(=O)OCC(=O)C1(C(CC2C1(CC(C3(C2CCC4=CC(=O)C=CC43C)F)O)C)C)OC(=O)CC,CCC(=O)OCC(=O)C1(C(CC2C1(CC(C3(C2CCC4=CC(=O)C=CC43C)F)O)C)C)OC(=O)CC,-3.77
CIWBSHSKHKDKBQ-UHFFFAOYSA-N,vitamin c,O=C1O[C@H]([C@@H](O)CO)C(O)=C1O,C([C@@H]([C@@H]1C(=C(C(=O)O1)O)O)O)O,OCC(O)C1OC(=O)C(=C1O)O,0.276635557
CIWLFJDHBPQVQC-UHFFFAOYSA-N,"4-(6,7-Dimethoxyquinazolin-4-yl)piperazine-1-carbothioic acid (furan-2-ylmethyl)amide",COc1cc2ncnc(N3CCN(C(=S)NCc4ccco4)CC3)c2cc1OC,COc1cc2c(cc1OC)ncnc2N3CCN(CC3)C(=S)NCc4ccco4,COC1=CC2=C(C=C1OC)C(=NC=N2)N3CCN(CC3)C(=S)NCC4=CC=CO4,-5.63
CIWQNJQXANMFTK-UHFFFAOYSA-N,,COc1ccc2c(Nc3ccc(Oc4ccccc4OC(C)(C)C(=O)NCC(=O)NC4CC4)cc3)c(C#N)cnc2c1,CC(C)(C(=O)NCC(=O)NC1CC1)Oc2ccccc2Oc3ccc(cc3)Nc4c5ccc(cc5ncc4C#N)OC,COC=1C=CC=2C(=C(C=NC2C1)C#N)NC=3C=CC(=CC3)OC=4C=CC=CC4OC(C)(C)C(=O)NCC(=O)NC5CC5,-5.7544873
CIYASHNQNMTNOT-UHFFFAOYSA-N,,Cc1cc(Nc2nc(Nc3ccccc3)ncc2Br)[nH]n1,Cc1cc([nH]n1)Nc2c(cnc(n2)Nc3ccccc3)Br,CC=1C=C(NN1)NC=2N=C(N=CC2Br)NC=3C=CC=CC3,-6.3187587999999995
CIZUMWWHWPJAAK-UHFFFAOYSA-N,4-[9-(4-AMINO-3-CHLOROPHENYL)-9H-FLUOREN-9-YL]-2-CHLOROANILINE,Nc1ccc(C2(c3ccc(N)c(Cl)c3)c3ccccc3-c3ccccc32)cc1Cl,c1ccc2c(c1)-c3ccccc3C2(c4ccc(c(c4)Cl)N)c5ccc(c(c5)Cl)N,NC=1C=CC(=CC1Cl)C2(C=3C=CC=CC3C4=C2C=CC=C4)C=5C=CC(=C(C5)Cl)N,-6.904242814
CJBJHOAVZSMMDJ-UHFFFAOYSA-N,darunavir,CC(C)CN(C[C@@H](O)[C@H](Cc1ccccc1)NC(=O)O[C@H]1CO[C@H]2OCC[C@@H]12)S(=O)(=O)c1ccc(N)cc1,CC(C)CN(C[C@H]([C@H](Cc1ccccc1)NC(=O)O[C@H]2CO[C@@H]3[C@H]2CCO3)O)S(=O)(=O)c4ccc(cc4)N,CC(C)CN(C[C@H]([C@H](CC1=CC=CC=C1)NC(=O)O[C@H]2CO[C@@H]3[C@H]2CCO3)O)S(=O)(=O)C4=CC=C(C=C4)N,-3.5624197630000003
CJBMLKNLJXFFGD-UHFFFAOYSA-N,"N,N-Dimethyl-N-tetradecyltetradecan-1-aminium chloride",CCCCCCCCCCCCCC[N+](C)(C)CCCCCCCCCCCCCC,CCCCCCCCCCCCCC[N+](C)(C)CCCCCCCCCCCCCC,CCCCCCCCCCCCCC[N+](C)(C)CCCCCCCCCCCCCC,-3.37501248
CJBMVMMYECULNQ-UHFFFAOYSA-N,BROMOTHYMOL  BLUE,Cc1cc(C2(c3cc(C)c(O)c(Br)c3C(C)C)OS(=O)(=O)c3ccccc32)c(C(C)C)c(Br)c1O,Cc1cc(c(c(c1O)Br)C(C)C)C2(c3ccccc3S(=O)(=O)O2)c4cc(c(c(c4C(C)C)Br)O)C,CC(C)C1=C(C(=C(C=C1C2(OS(=O)(=O)C3=C2C=CC=C3)C4=CC(=C(C(=C4C(C)C)Br)O)C)C)O)Br,-5.18
CJCSPKMFHVPWAR-UHFFFAOYSA-N,Methyldopa,C[C@](N)(Cc1ccc(O)c(O)c1)C(=O)O,C[C@](Cc1ccc(c(c1)O)O)(C(=O)O)N,C[C@](N)(CC=1C=CC(=C(C1)O)O)C(=O)O,-1.324857239
CJDNEKOMKXLSBN-UHFFFAOYSA-N,"BIPHENYL, 3,4'-DICHLORO-",Clc1ccc(-c2cccc(Cl)c2)cc1,c1cc(cc(c1)Cl)c2ccc(cc2)Cl,ClC=1C=CC(=CC1)C=2C=CC=C(C2)Cl,-6.40005
CJDRUOGAGYHKKD-UHFFFAOYSA-N,Ajmaline,CC[C@H]1[C@@H]2C[C@H]3[C@@H]4N(C)c5ccccc5[C@]45C[C@@H](C2C5O)N3[C@@H]1O,CC[C@H]1[C@@H]2C[C@H]3[C@H]4[C@@]5(C[C@@H](C2C5O)N3[C@@H]1O)c6ccccc6N4C,OC1C23C(N(C=4C2=CC=CC4)C)C5N6C(C1C(C5)C(C6O)CC)C3,-2.82
CJDWRQLODFKPEL-UHFFFAOYSA-N,teflubenzuron; nomolt,O=C(NC(=O)c1c(F)cccc1F)Nc1cc(Cl)c(F)c(Cl)c1F,c1cc(c(c(c1)F)C(=O)NC(=O)Nc2cc(c(c(c2F)Cl)F)Cl)F,O=C(NC(=O)C1=C(C=CC=C1F)F)NC2=C(C(=C(C(=C2)Cl)F)Cl)F,-7.29115
CJFGJDAFTAOSHI-UHFFFAOYSA-N,,COc1cc2c(Nc3ccc(F)c(Cl)c3)ncnc2cc1OCCN1CCC(N2CCCC2)CC1,COc1cc2c(cc1OCCN3CCC(CC3)N4CCCC4)ncnc2Nc5ccc(c(c5)Cl)F,COC=1C=C2C(=NC=NC2=CC1OCCN3CCC(CC3)N4CCCC4)NC=5C=CC(=C(C5)Cl)F,-4.69897
CJFLBOQMPJCWLR-UHFFFAOYSA-N,"1,6-bis(2-methylheptyl) hexanedioate",CC(C)CCCCCOC(=O)CCCCC(=O)OCCCCCC(C)C,CC(C)CCCCCOC(=O)CCCCC(=O)OCCCCCC(C)C,CC(C)CCCCCOC(=O)CCCCC(=O)OCCCCCC(C)C,-6.869952471
CJFUSXTZNHJXBV-UHFFFAOYSA-N,"1,2,3-Benzenetricarboxylic acid, 5-chloro-",O=C(O)c1cc(Cl)cc(C(=O)O)c1C(=O)O,c1c(cc(c(c1C(=O)O)C(=O)O)C(=O)O)Cl,C1(=C(C=C(C=C1C(=O)O)Cl)C(=O)O)C(=O)O,-1.081
CJGXJKVMUHXVHL-UHFFFAOYSA-N,t-Pentylbenzene,CC(C)(C)Cc1ccccc1,CC(C)(C)Cc1ccccc1,CC(C)(C)CC=1C=CC=CC1,-4.15
CJGXWABHYYJNJH-UHFFFAOYSA-N,4-Cyanophenyl acetate,CC(=O)Oc1ccc(C#N)cc1,CC(=O)Oc1ccc(cc1)C#N,CC(=O)OC=1C=CC(=CC1)C#N,-1.799008647
CJHXCRMKMMBYJQ-UHFFFAOYSA-N,Dimethirimol,CCCCc1c(C)nc(N(C)C)nc1O,CCCCc1c(nc(nc1O)N(C)C)C,OC=1C(=C(N=C(N1)N(C)C)C)CCCC,-2.24
CJHZYMDXCQLLFC-UHFFFAOYSA-N,C.I.Basic Violet 11,CCOC(=O)c1ccccc1-c1c2ccc(N(CC)CC)cc2[o+]c2cc(N(CC)CC)ccc12,CCN(CC)c1ccc2c(c1)[o+]c3cc(ccc3c2c4ccccc4C(=O)OCC)N(CC)CC,CCOC(=O)C=1C=CC=CC1C=2C=3C=CC(=CC3[O+]=C4C2C=CC(=C4)N(CC)CC)N(CC)CC,-1.280094853
CJJOSEISRRTUQB-UHFFFAOYSA-N,methyl azinphos,COP(=S)(OC)SCn1nnc2ccccc2c1=O,COP(=S)(OC)SCn1c(=O)c2ccccc2nn1,S=P(OC)(OC)SCN1N=NC2=CC=CC=C2C1=O,-4.181
CJKBARPNDJSJDB-UHFFFAOYSA-N,,COc1ccc(S(=O)(=O)NC(=O)c2cccc(CN3Cc4ccccc4Oc4ccc(Cl)cc43)c2)cc1,COc1ccc(cc1)S(=O)(=O)NC(=O)c2cccc(c2)CN3Cc4ccccc4Oc5c3cc(cc5)Cl,COC=1C=CC(=CC1)S(=O)(=O)NC(=O)C=2C=CC=C(C2)CN3CC=4C=CC=CC4OC5=C3C=C(C=C5)Cl,-4.6382722
CJKIARPAITXRNU-UHFFFAOYSA-N,,COc1cc2c(NC(=O)Nc3c(C)cccc3C)ncnc2cc1OCCN1CCCCC1,Cc1cccc(c1NC(=O)Nc2c3cc(c(cc3ncn2)OCCN4CCCCC4)OC)C,COC=1C=C2C(=NC=NC2=CC1OCCN3CCCCC3)NC(=O)NC=4C(=CC=CC4C)C,-4.6197888
CJKUHJHEQDHGFV-UHFFFAOYSA-N,,CSCCC(NC(=O)c1cc(NCC2CC(SC(C)=O)CN2)ccc1CCc1ccc(F)cc1)C(=O)OC(C)C,CC(C)OC(=O)C(CCSC)NC(=O)c1cc(ccc1CCc2ccc(cc2)F)NCC3CC(CN3)SC(=O)C,CSCCC(NC(=O)C=1C=C(C=CC1CCC=2C=CC(=CC2)F)NCC3CC(CN3)SC(=O)C)C(=O)OC(C)C,-5.1426675
CJNZAXGUTKBIHP-UHFFFAOYSA-N,o-Iodobenzoic_Acid,O=C(O)c1ccccc1I,c1ccc(c(c1)C(=O)O)I,OC(=O)C=1C=CC=CC1I,-2.73
CJOFXWAVKWHTFT-UHFFFAOYSA-N,fluvoxamine,COCCCC/C(=N\OCCN)c1ccc(C(F)(F)F)cc1,COCCCC/C(=N\OCCN)/c1ccc(cc1)C(F)(F)F,COCCCC/C(=N\OCCN)/C1=CC=C(C=C1)C(F)(F)F,-1.330595808
CJOPEKRWVOYVAE-UHFFFAOYSA-N,,CCn1c2ccccc2c2cc(NC(=O)C3CCCN3C)ccc21,CCn1c2ccccc2c3c1ccc(c3)NC(=O)C4CCCN4C,CCN1C=2C=CC=CC2C3=C1C=CC(=C3)NC(=O)C4CCCN4C,-4.3187587999999995
CJPQIRJHIZUAQP-UHFFFAOYSA-N,BENALAXYL,COC(=O)C(C)N(C(=O)Cc1ccccc1)c1c(C)cccc1C,Cc1cccc(c1N(C(C)C(=O)OC)C(=O)Cc2ccccc2)C,O=C(N(C1=C(C=CC=C1C)C)C(C(=O)OC)C)CC2=CC=CC=C2,-3.944
CJQNBXFUHQZFOE-UHFFFAOYSA-N,"4-[(10,13-dimethyl-3-oxo-1,2,6,7,8,9,11,12,14,15,16,17-dodecahydrocyclopenta[a]phenanthren-17-yl)oxy]-4-oxobutanoic acid",CC12CCC(=O)C=C1CCC1C2CCC2(C)C(OC(=O)CCC(=O)O)CCC12,CC12CCC3C(C1CCC2OC(=O)CCC(=O)O)CCC4=CC(=O)CCC34C,CC12CCC(=O)C=C1CCC3C2CCC4(C3CCC4OC(=O)CCC(=O)O)C,-5.0815
CJROSDSCFWLIDA-UHFFFAOYSA-N,,O=C1NC(=O)C(c2ccc(O)cc2)(c2ccc(O)cc2)C(=O)N1,c1cc(ccc1C2(C(=O)NC(=O)NC2=O)c3ccc(cc3)O)O,OC=1C=CC(=CC1)C2(C(=O)NC(=O)NC2=O)C=3C=CC(=CC3)O,-2.6575773
CJVGSUQGJXRHCE-UHFFFAOYSA-N,,COc1cc(CC(=O)Nc2ccc(OC3CCN(S(=O)(=O)c4ccc(Cl)s4)C3)c(OCC(C)CC(=O)O)c2)cc2oc(Nc3ccccc3)nc12,CC(CC(=O)O)COc1cc(ccc1OC2CCN(C2)S(=O)(=O)c3ccc(s3)Cl)NC(=O)Cc4cc5c(c(c4)OC)nc(o5)Nc6ccccc6,COC=1C=C(C=C2C1N=C(O2)NC=3C=CC=CC3)CC(=O)NC=4C=CC(=C(C4)OCC(C)CC(=O)O)OC5CCN(C5)S(=O)(=O)C6=CC=C(S6)Cl,-5.8860566
CJWTZQKMPNWGHL-UHFFFAOYSA-N,,COc1cc2c(Nc3cnc(C(=O)N(C)c4cccc(Cl)c4)nc3)ncnc2cc1OCCCN1CCCCC1,CN(c1cccc(c1)Cl)C(=O)c2ncc(cn2)Nc3c4cc(c(cc4ncn3)OCCCN5CCCCC5)OC,COC=1C=C2C(=NC=NC2=CC1OCCCN3CCCCC3)NC=4C=NC(=NC4)C(=O)N(C)C=5C=CC=C(C5)Cl,-4.2118316
CJXAEXPPLWQRFR-UHFFFAOYSA-N,clemizole hydrochloride,Clc1ccc(Cn2c(CN3CCCC3)nc3ccccc32)cc1,c1ccc2c(c1)nc(n2Cc3ccc(cc3)Cl)CN4CCCC4,C1CCN(C1)CC2=NC3=CC=CC=C3N2CC4=CC=C(C=C4)Cl,-1.745087258
CJXRJWDNWGZUPP-UHFFFAOYSA-N,,Cc1cc(C)cc(-c2[nH]c3ccc(CC#N)cc3c2CCN(C)C)c1,Cc1cc(cc(c1)c2c(c3cc(ccc3[nH]2)CC#N)CCN(C)C)C,CN(C)CCC1=C(NC2=C1C=C(C=C2)CC#N)C=3C=C(C=C(C3)C)C,-3.7695510999999997
CJXVAOIYYFPZDN-UHFFFAOYSA-N,,O=C(COc1ccc(OCCNCC(O)COc2ccccc2)cc1)NCCO,c1ccc(cc1)OCC(CNCCOc2ccc(cc2)OCC(=O)NCCO)O,OCCNC(=O)COC=1C=CC(=CC1)OCCNCC(O)COC=2C=CC=CC2,-2.79588
CJZCIWDJIZWGBK-UHFFFAOYSA-N,2-Sulfanilamido-4-(diphenyl-4-yl)thiazole,Nc1ccc(S(=O)(=O)Nc2nc(-c3ccc(-c4ccccc4)cc3)cs2)cc1,c1ccc(cc1)c2ccc(cc2)c3csc(n3)NS(=O)(=O)c4ccc(cc4)N,NC1=CC=C(C=C1)S(=O)(=O)NC2=NC(=CS2)C3=CC=C(C=C3)C4=CC=CC=C4,-5.61
CKCOPXYDLYHALV-UHFFFAOYSA-N,,COc1ccc(NC(=O)COc2cc(OC)c3nc(Nc4ccccc4)oc3c2)cc1OCC(C)CC(=O)O,CC(CC(=O)O)COc1cc(ccc1OC)NC(=O)COc2cc3c(c(c2)OC)nc(o3)Nc4ccccc4,COC=1C=CC(=CC1OCC(C)CC(=O)O)NC(=O)COC=2C=C(C=3N=C(OC3C2)NC=4C=CC=CC4)OC,-3.0457575
CKCSUNHTSMNWOK-UHFFFAOYSA-N,"3,3-diethylpiperidine-2,6-dione",CCC1(CC)CCC(=O)NC1=O,CCC1(CCC(=O)NC1=O)CC,CCC1(CCC(=O)NC1=O)CC,-4.53
CKIPTAGVZVFLGB-UHFFFAOYSA-N,,COC1CN(C)C(=O)c2cc(NC(=O)c3ccc4c(c3)OCO4)ccc2OCC(C)N(CCC(F)(F)F)CC1C,CC1CN(C(COc2ccc(cc2C(=O)N(CC1OC)C)NC(=O)c3ccc4c(c3)OCO4)C)CCC(F)(F)F,COC1CN(C(=O)C2=CC(=CC=C2OCC(N(CC1C)CCC(F)(F)F)C)NC(=O)C3=CC=C4C(=C3)OCO4)C,-4.495
CKKJOMUCSUPIDH-UHFFFAOYSA-N,"Semioxamazide, 1-[3-(5-nitro-2-furanyl)allyliden",NC(=O)C(=O)N/N=C/C=C/c1ccc([N+](=O)[O-])o1,c1cc(oc1/C=C/C=N/NC(=O)C(=O)N)[N+](=O)[O-],O=C(N)C(=O)N/N=C/C=C/C=1OC(=CC1)[N+](=O)[O-],-4.8
CKMIJGNALZIDRK-UHFFFAOYSA-N,,CN1CCC(Oc2cccc3ncnc(Nc4ccc(Sc5nccn5C)c(Cl)c4)c23)CC1,Cn1ccnc1Sc2ccc(cc2Cl)Nc3c4c(cccc4OC5CCN(CC5)C)ncn3,CN1CCC(CC1)OC=2C=CC=C3C2C(=NC=N3)NC=4C=CC(=C(C4)Cl)SC5=NC=CN5C,-6.0443122
CKMXAIVXVKGGFM-UHFFFAOYSA-N,CUMIC ACID,CC(C)c1ccc(C(=O)O)cc1,CC(C)c1ccc(cc1)C(=O)O,CC(C)C=1C=CC(=CC1)C(=O)O,-3.0362
CKOMXBHMKXXTNW-UHFFFAOYSA-N,"1H-Purin-6-amine, N-methyl-",CNc1ncnc2[nH]cnc12,CNc1c2c([nH]cn2)ncn1,CNC1=NC=NC2=C1N=CN2,-2.102
CKPCAYZTYMHQEX-UHFFFAOYSA-N,PYRIFENOX,CO/N=C(\Cc1cccnc1)c1ccc(Cl)cc1Cl,CO/N=C(\Cc1cccnc1)/c2ccc(cc2Cl)Cl,ClC1=CC=C(C(=C1)Cl)/C(=N/OC)/CC2=CC=CN=C2,-3.29
CKPIWBTXNLQELX-UHFFFAOYSA-N,N-hexylsulfonylhexane-1-sulfonamide,CCCCCCS(=O)(=O)NS(=O)(=O)CCCCCC,CCCCCCS(=O)(=O)NS(=O)(=O)CCCCCC,N(S(=O)(=O)CCCCCC)S(=O)(=O)CCCCCC,-2.1975
CKQHAYFOPRIUOM-UHFFFAOYSA-N,m-Aminoacetophenone,CC(=O)c1cccc(N)c1,CC(=O)c1cccc(c1)N,CC(=O)C=1C=CC=C(C1)N,-1.28
CKSHRDPCFLDKPV-UHFFFAOYSA-N,"Phosphorodithioic acid, O,O-diphenyl ester",S=P(S)(Oc1ccccc1)Oc1ccccc1,c1ccc(cc1)OP(=S)(Oc2ccccc2)S,O(P(=S)(OC1=CC=CC=C1)S)C2=CC=CC=C2,-0.071
CKUBKYSLNCKBOI-UHFFFAOYSA-N,"2,3',4,6-TETRACHLOROBIPHENYL",Clc1cccc(-c2c(Cl)cc(Cl)cc2Cl)c1,c1cc(cc(c1)Cl)c2c(cc(cc2Cl)Cl)Cl,ClC=1C=CC=C(C1)C=2C(=CC(=CC2Cl)Cl)Cl,-7.1547
CKYALBXLIODGJV-UHFFFAOYSA-N,,N#CCNc1nc(Nc2ccc(S(=O)(=O)NCC3CCCO3)cc2)ncc1C#N,c1cc(ccc1Nc2ncc(c(n2)NCC#N)C#N)S(=O)(=O)NCC3CCCO3,O=S(=O)(NCC1CCCO1)C=2C=CC(=CC2)NC=3N=CC(=C(N3)NCC#N)C#N,-5.1870866
CLAOCVVWIKGTOP-UHFFFAOYSA-N,"NICOTINIC ACID, PROPYL ESTER",CCCOC(=O)c1cccnc1,CCCOC(=O)c1cccnc1,CCCOC(=O)C=1C=CC=NC1,-1.24015