inchikey,Name,SMILES_stand,SMILES,kekSmiles,logS
GYOZYWVXFNDGLU-UHFFFAOYSA-N,,Cc1cn(C2CC(O)C(COP(=O)(O)O)O2)c(=O)[nH]c1=O,Cc1cn(c(=O)[nH]c1=O)C2CC(C(O2)COP(=O)(O)O)O,P(=O)(OCC1OC(CC1O)N2C=C(C(=O)NC2=O)C)(O)O,0.1104
GYRPICHNIDQFOD-UHFFFAOYSA-N,Norethisterone,C#CC1(O)CCC2C3CCC4=CC(=O)CCC4(O)C3CCC21C,CC12CCC3C(C1CCC2(C#C)O)CCC4=CC(=O)CCC34O,OC12CCC(=O)C=C1CCC3C2CCC4(C3CCC4(C#C)O)C,-4.57
GYSCXPVAKHVAAY-UHFFFAOYSA-N,3-NONANOL,CCCCCCC(O)CC,CCCCCCC(CC)O,OC(CC)CCCCCC,-2.654
GYSSRZJIHXQEHQ-UHFFFAOYSA-N,vitavax;  carboxin,CC1=C(C(=O)Nc2ccccc2)SCCO1,CC1=C(SCCO1)C(=O)Nc2ccccc2,O=C(C1=C(OCCS1)C)NC2=CC=CC=C2,-3.14
GYTMHWVFKHLDEA-UHFFFAOYSA-N,4-(4-methylbenzoyl)thiophene-2-sulfonamide,Cc1ccc(C(=O)c2csc(S(N)(=O)=O)c2)cc1,Cc1ccc(cc1)C(=O)c2cc(sc2)S(=O)(=O)N,S(=O)(=O)(N)C=1SC=C(C1)C(=O)C=2C=CC(=CC2)C,-4.4491
GYUVMLBYMPKZAZ-UHFFFAOYSA-N,"2,6-dimethyl naphthalene-2,6-dicarboxylate",COC(=O)c1ccc2cc(C(=O)OC)ccc2c1,COC(=O)c1ccc2cc(ccc2c1)C(=O)OC,COC(=O)C=1C=CC=2C=C(C=CC2C1)C(=O)OC,-6.212000000000001
GYVGXEWAOAAJEU-UHFFFAOYSA-N,"N,N,4-TRIMETHYLANILINE",Cc1ccc(N(C)C)cc1,Cc1ccc(cc1)N(C)C,C1(=CC=C(C=C1)C)N(C)C,-2.318
GYWWEOKUDVXXDL-UHFFFAOYSA-N,,CN(C)CCCNc1ccc(Nc2ncc(Br)c(Nc3ccccc3)n2)cc1,CN(C)CCCNc1ccc(cc1)Nc2ncc(c(n2)Nc3ccccc3)Br,CN(C)CCCNC=1C=CC(=CC1)NC=2N=CC(=C(N2)NC=3C=CC=CC3)Br,-2.8239087000000005
GYXJNPCMLREPTE-UHFFFAOYSA-N,,COc1ccc(Cc2nnc(N)s2)cc1,COc1ccc(cc1)Cc2nnc(s2)N,COC=1C=CC(=CC1)CC2=NN=C(S2)N,-3.4436975
GYZVZBFSJCVIDL-UHFFFAOYSA-N,"1,5-Pentanediol, dipropanoate",CCC(=O)OCCCCCOC(=O)CC,CCC(=O)OCCCCCOC(=O)CC,C(=O)(OCCCCCOC(=O)CC)CC,-2.231
GZBXCCCGVZBCNA-UHFFFAOYSA-N,,COC1CCC2CCN(C)C(=O)C(C)CN(C)C(=O)c3cccc(C#N)c3OCC1O2,CC1CN(C(=O)c2cccc(c2OCC3C(CCC(O3)CCN(C1=O)C)OC)C#N)C,COC1CCC2CCN(C(=O)C(CN(C(=O)C3=CC=CC(=C3OCC1O2)C#N)C)C)C,-4.006
GZCGUPFRVQAUEE-UHFFFAOYSA-N,glucose,O=CC(O)C(O)C(O)C(O)CO,C(C(C(C(C(C=O)O)O)O)O)O,OC(C(O)C(O)C=O)C(O)CO,0.6685
GZCNKQPANHRSAJ-UHFFFAOYSA-N,,Cc1ccccc1CC(=O)Nc1cc(C)c(S(=O)(=O)C[N+](=O)[O-])c(C)c1,Cc1ccccc1CC(=O)Nc2cc(c(c(c2)C)S(=O)(=O)C[N+](=O)[O-])C,CC=1C=CC=CC1CC(=O)NC=2C=C(C(=C(C2)C)S(=O)(=O)C[N+](=O)[O-])C,-3.2076083
GZFVSBWRIHKSNM-UHFFFAOYSA-N,,N#Cc1c(C(=O)O)n(Cc2ccc(Cl)c(Cl)c2)c2ccccc12,c1ccc2c(c1)c(c(n2Cc3ccc(c(c3)Cl)Cl)C(=O)O)C#N,OC(=O)C1=C(C=2C=CC=CC2N1CC=3C=CC(=C(C3)Cl)Cl)C#N,-2.9065783
GZGSEMRMKBBQGA-UHFFFAOYSA-N,"Phenol, styrenated",C=Cc1ccc(O)c(C=C)c1,C=Cc1ccc(c(c1)C=C)O,OC=1C=CC(=CC1C=C)C=C,-3.3940626839999997
GZGZVOLBULPDFD-UHFFFAOYSA-N,2-[(4-amino-2-nitrophenyl)amino]ethan-1-ol,Nc1ccc(NCCO)c([N+](=O)[O-])c1,c1cc(c(cc1N)[N+](=O)[O-])NCCO,NC=1C=CC(=C(C1)[N+](=O)[O-])NCCO,-2.1910449880000002
GZHCYRZFDQBRLU-UHFFFAOYSA-N,"Glycine, N-(1-methyl-3-oxo-1-butenyl)-, ethyl es",CCOC(=O)CN/C(C)=C/C(C)=O,CCOC(=O)CN/C(=C/C(=O)C)/C,O=C(OCC)CN/C(=C/C(=O)C)/C,-0.5862
GZHMEZYZUKIBIP-UHFFFAOYSA-N,,CN(C)CC(O)COc1ccc(Nc2ncc(Br)c(Nc3cccc(Cl)c3)n2)cc1,CN(C)CC(COc1ccc(cc1)Nc2ncc(c(n2)Nc3cccc(c3)Cl)Br)O,CN(C)CC(O)COC=1C=CC(=CC1)NC=2N=CC(=C(N2)NC=3C=CC=C(C3)Cl)Br,-4.3767507000000005
GZJNBGYLANALSV-UHFFFAOYSA-N,medinoterb acetate,CC(=O)Oc1c([N+](=O)[O-])cc([N+](=O)[O-])c(C)c1C(C)(C)C,Cc1c(cc(c(c1C(C)(C)C)OC(=O)C)[N+](=O)[O-])[N+](=O)[O-],CC(=O)OC=1C(=CC(=C(C1C(C)(C)C)C)[N+](=O)[O-])[N+](=O)[O-],-4.4719999999999995
GZKLCZIMSAHQDR-UHFFFAOYSA-N,4-naphthalen-2-yl-4-oxobutanoic acid,O=C(O)CCC(=O)c1ccc2ccccc2c1,c1ccc2cc(ccc2c1)C(=O)CCC(=O)O,OC(=O)CCC(=O)C=1C=CC=2C=CC=CC2C1,-3.8510000000000004
GZKLJWGUPQBVJQ-UHFFFAOYSA-N,sertindole,O=C1NCCN1CCN1CCC(c2cn(-c3ccc(F)cc3)c3ccc(Cl)cc23)CC1,c1cc(ccc1n2cc(c3c2ccc(c3)Cl)C4CCN(CC4)CCN5CCNC5=O)F,C1CN(CCC1C2=CN(C3=C2C=C(C=C3)Cl)C4=CC=C(C=C4)F)CCN5CCNC5=O,-4.662108265
GZMAAYIALGURDQ-UHFFFAOYSA-N,"ETHANOL, 2- 2-(HEXYLOXY)ETHOXY -",CCCCCCOCCOCCO,CCCCCCOCCOCCO,OCCOCCOCCCCCC,-1.0490000000000002
GZNKOYMUCNXTQU-UHFFFAOYSA-N,,COCCNC(=N)c1ccc(C(=O)N2CCN(S(=O)(=O)c3ccc4cc(Br)ccc4c3)CC2)cc1,COCCNC(=N)c1ccc(cc1)C(=O)N2CCN(CC2)S(=O)(=O)c3ccc4cc(ccc4c3)Br,COCCNC(=N)C=1C=CC(=CC1)C(=O)N2CCN(CC2)S(=O)(=O)C=3C=CC=4C=C(C=CC4C3)Br,-2.741275
GZNMGFNCLRPULT-UHFFFAOYSA-N,,Cc1ccc(NC(=O)c2cccc(N3CCOCC3)c2)cc1NC(=O)c1cccc(OC2CCN(CC3CC3)CC2)c1,Cc1ccc(cc1NC(=O)c2cccc(c2)OC3CCN(CC3)CC4CC4)NC(=O)c5cccc(c5)N6CCOCC6,CC=1C=CC(=CC1NC(=O)C=2C=CC=C(C2)OC3CCN(CC3)CC4CC4)NC(=O)C=5C=CC=C(C5)N6CCOCC6,-3.3467875
GZOFTOHENYHNMS-UHFFFAOYSA-N,"methyl 5-[2-(2,5-dimethoxyphenyl)ethyl]-2-hydroxybenzoate",COC(=O)c1cc(CCc2cc(OC)ccc2OC)ccc1O,COc1ccc(c(c1)CCc2ccc(c(c2)C(=O)OC)O)OC,COC(=O)C1=C(C=CC(=C1)CCC2=C(C=CC(=C2)OC)OC)O,-6.388
GZPBMGVKWGJDIF-UHFFFAOYSA-N,"N1,N1,N4-TRIMETHYLSULFANILAMIDE",CNc1ccc(S(=O)(=O)N(C)C)cc1,CNc1ccc(cc1)S(=O)(=O)N(C)C,CNC1=CC=C(C=C1)S(=O)(=O)N(C)C,-3.08
GZPMPGRDJPDZQX-UHFFFAOYSA-N,,CN(C)c1cc(-c2ccc(C(=O)N3CCN(S(=O)(=O)c4cc5cc(Cl)ccc5[nH]4)CC3)cc2)ncn1,CN(C)c1cc(ncn1)c2ccc(cc2)C(=O)N3CCN(CC3)S(=O)(=O)c4cc5cc(ccc5[nH]4)Cl,CN(C)C=1C=C(N=CN1)C=2C=CC(=CC2)C(=O)N3CCN(CC3)S(=O)(=O)C4=CC=5C=C(C=CC5N4)Cl,-6.1804561
GZSFNZAVQZGNTG-UHFFFAOYSA-N,"4,7(1H,8H)-Pteridinedione",O=c1cnc2c(=O)nc[nH]c2[nH]1,c1c(=O)[nH]c2c(n1)c(=O)nc[nH]2,O=C1NC2=C(N=C1)C(=O)NC=N2,-2.8185
GZSOSUNBTXMUFQ-UHFFFAOYSA-N,"5-HYDROXY-2-(3-HYDROXY-4-METHOXYPHENYL)-7-{[(2S,3R,4S,5S,6R)-3,4,5-TRIHYDROXY-6-({[(2R,3R,4R,5R,6S)-3,4,5-TRIHYDROXY-6-METHYLOXAN-2-YL]OXY}METHYL)OXAN-2-YL]OXY}-4H-CHROMEN-4-ONE",COc1ccc(-c2cc(=O)c3c(O)cc(O[C@@H]4O[C@H](CO[C@@H]5O[C@@H](C)[C@H](O)[C@@H](O)[C@H]5O)[C@@H](O)[C@H](O)[C@H]4O)cc3o2)cc1O,C[C@H]1[C@@H]([C@H]([C@H]([C@@H](O1)OC[C@@H]2[C@H]([C@@H]([C@H]([C@@H](O2)Oc3cc(c4c(=O)cc(oc4c3)c5ccc(c(c5)O)OC)O)O)O)O)O)O)O,COC=1C=CC(=CC1O)C2=CC(=O)C=3C(=CC(=CC3O2)O[C@@H]4O[C@@H]([C@H]([C@@H]([C@H]4O)O)O)CO[C@@H]5O[C@H]([C@@H]([C@H]([C@H]5O)O)O)C)O,-7.505770976
GZTBZMZQUFMHTK-UHFFFAOYSA-N,,CCOC(=O)/C=C/c1ccc(Nc2ncnc3cc(OC)c(OC)cc23)cc1,CCOC(=O)/C=C/c1ccc(cc1)Nc2c3cc(c(cc3ncn2)OC)OC,CCOC(=O)/C=C/C=1C=CC(=CC1)NC=2N=CN=C3C2C=C(C(=C3)OC)OC,-5.69897
GZUITABIAKMVPG-UHFFFAOYSA-N,raloxifene,O=C(c1ccc(OCCN2CCCCC2)cc1)c1c(-c2ccc(O)cc2)sc2cc(O)ccc12,c1cc(ccc1c2c(c3ccc(cc3s2)O)C(=O)c4ccc(cc4)OCCN5CCCCC5)O,S1C(=C(C2=C1C=C(C=C2)O)C(=O)C3=CC=C(C=C3)OCCN4CCCCC4)C5=CC=C(C=C5)O,-2.027175001
GZVCBRNLPCOSIQ-UHFFFAOYSA-N,,CN(C)CC(O)COc1ccc(Nc2ncc(Br)c(Nc3ccc(Cl)nc3)n2)cc1,CN(C)CC(COc1ccc(cc1)Nc2ncc(c(n2)Nc3ccc(nc3)Cl)Br)O,CN(C)CC(O)COC=1C=CC(=CC1)NC=2N=CC(=C(N2)NC=3C=CC(=NC3)Cl)Br,-3.6575773000000003
GZVHEAJQGPRDLQ-UHFFFAOYSA-N,BENZOGUANAMINE,Nc1nc(N)nc(-c2ccccc2)n1,c1ccc(cc1)c2nc(nc(n2)N)N,NC=1N=C(N=C(N1)C=2C=CC=CC2)N,-2.494168514
GZVOWHYYFUOPAE-UHFFFAOYSA-N,THEOPHYLLIN-7-YLMETHYL OCTANOATE;  7-(Octanoyloxymethyl)theophylline,CCCCCCCC(=O)OCn1cnc2c1c(=O)n(C)c(=O)n2C,CCCCCCCC(=O)OCn1cnc2c1c(=O)n(c(=O)n2C)C,CCCCCCCC(=O)OCN1C=NC2=C1C(=O)N(C(=O)N2C)C,-3.45
GZWMDPGUFOOZAX-UHFFFAOYSA-N,,CC(O)(C(=O)Nc1ccc2c(c1)-c1ccccc1S2(=O)=O)C(F)(F)F,CC(C(=O)Nc1ccc2c(c1)-c3ccccc3S2(=O)=O)(C(F)(F)F)O,CC(O)(C(=O)NC=1C=CC2=C(C1)C=3C=CC=CC3S2(=O)=O)C(F)(F)F,-5.1249387
GZXGHZDSFNQRKK-UHFFFAOYSA-N,n-(benzoyloxyacetyl)proline,O=C(OCC(=O)N1CCC[C@H]1C(=O)O)c1ccccc1,c1ccc(cc1)C(=O)OCC(=O)N2CCC[C@H]2C(=O)O,OC(=O)[C@@H]1CCCN1C(=O)COC(=O)C=2C=CC=CC2,-1.5919999999999999
HAAFFTHBNFBVKY-UHFFFAOYSA-N,"4,5-dichloroquiaiacol",COc1cc(Cl)c(Cl)cc1O,COc1cc(c(cc1O)Cl)Cl,COC1=C(C=C(C(=C1)Cl)Cl)O,-2.53
HAFOQYHPJYVFTI-UHFFFAOYSA-N,,COc1ccc(-c2n[nH]c3c2C(=O)c2ccccc2-3)cc1,COc1ccc(cc1)c2c3c([nH]n2)-c4ccccc4C3=O,COC=1C=CC(=CC1)C2=NNC3=C2C(=O)C=4C3=CC=CC4,-6.522878700000001
HAHCNFVGRVWFIP-UHFFFAOYSA-N,Cycloxydim,CCCC(NOCC)=C1C(=O)CC(C2CCCSC2)CC1=O,CCCC(=C1C(=O)CC(CC1=O)C2CCCSC2)NOCC,S1CC(CCC1)C2CC(=O)C(=C(NOCC)CCC)C(=O)C2,-3.91
HAHJBRYAJBYMHW-UHFFFAOYSA-N,"Sulfanilamide, N1-(4-isobutyl-2-pyrimidinyl)-",CC(C)Cc1ccnc(NS(=O)(=O)c2ccc(N)cc2)n1,CC(C)Cc1ccnc(n1)NS(=O)(=O)c2ccc(cc2)N,S(=O)(=O)(NC1=NC(=CC=N1)CC(C)C)C=2C=CC(=CC2)N,-3.486
HAJBOXZNCGYLAF-UHFFFAOYSA-N,,COC1CN(C)C(=O)c2ccc(NC(=O)c3ccc(-c4ccccc4)cc3)cc2OCC(C)NCC1C,CC1CNC(COc2cc(ccc2C(=O)N(CC1OC)C)NC(=O)c3ccc(cc3)c4ccccc4)C,COC1CN(C(=O)C2=CC=C(C=C2OCC(NCC1C)C)NC(=O)C3=CC=C(C=C3)C4=CC=CC=C4)C,-4.2010000000000005
HAJIFEGFYCKSOC-UHFFFAOYSA-N,,CSCCC(NC(=O)c1ccc(COC(Cc2cncn2C)c2ccc(F)cc2)nc1-c1ccc(F)cc1)C(=O)OC(C)(C)C,CC(C)(C)OC(=O)C(CCSC)NC(=O)c1ccc(nc1c2ccc(cc2)F)COC(Cc3cncn3C)c4ccc(cc4)F,CSCCC(NC(=O)C=1C=CC(=NC1C=2C=CC(=CC2)F)COC(CC3=CN=CN3C)C=4C=CC(=CC4)F)C(=O)OC(C)(C)C,-5.49485
HAKJTBOWCJGLKF-UHFFFAOYSA-N,"2,2-diethyl-n-hydroxydecanamide",CCCCCCCCC(CC)(CC)C(=O)NO,CCCCCCCCC(CC)(CC)C(=O)NO,CCCCCCCCC(CC)(CC)C(=O)NO,-5.221
HALJZHTVEIOBKZ-UHFFFAOYSA-N,"Spiro-5,5-undecamethylenebarbituric acid",O=C1NC(=O)C2(CCCCCCCCCCC2)C(=O)N1,C1CCCCCC2(CCCCC1)C(=O)NC(=O)NC2=O,O=C1NC(=O)C2(CCCCCCCCCCC2)C(=O)N1,-5.8
HAMMHSUBQYOIFQ-UHFFFAOYSA-N,"9-Anthracenecarboxylic acid, 9,10-dihydro-",O=C(O)C1c2ccccc2Cc2ccccc21,c1ccc2c(c1)Cc3ccccc3C2C(=O)O,OC(=O)C1C2=C(C=CC=C2)CC3=C1C=CC=C3,-2.351
HAMWZDHJUUNDMY-UHFFFAOYSA-N,,CCn1c2ccc(Cl)cc2c2cc(NC(=O)CCc3ccncc3)ccc21,CCn1c2ccc(cc2c3c1ccc(c3)Cl)NC(=O)CCc4ccncc4,CCN1C=2C=CC(=CC2C3=C1C=CC(=C3)NC(=O)CCC=4C=CN=CC4)Cl,-6.5086383
HAORKNGNJCEJBX-UHFFFAOYSA-N,cyprodinil;  4-cyclopropyl-6-methyl-2-phenylaminopyrimidine,Cc1cc(C2CC2)nc(Nc2ccccc2)n1,Cc1cc(nc(n1)Nc2ccccc2)C3CC3,CC=1C=C(N=C(N1)NC=2C=CC=CC2)C3CC3,-4.2388
HAPOJKSPCGLOOD-UHFFFAOYSA-N,Benzo[b]fluorene,c1ccc2c(c1)Cc1cc3ccccc3cc1-2,c1ccc2cc-3c(cc2c1)Cc4c3cccc4,C=1C=CC2=C(C1)CC3=C2C=C4C=CC=CC4=C3,-8.04
HAPOVYFOVVWLRS-UHFFFAOYSA-N,ethosuximide,CCC1(C)CC(=O)NC1=O,CCC1(CC(=O)NC1=O)C,CCC1(CC(=O)NC1=O)C,-0.556456348
HAWJXYBZNNRMNO-UHFFFAOYSA-N,Furathiocarb,CCCCOC(=O)N(C)SN(C)C(=O)Oc1cccc2c1OC(C)(C)C2,CCCCOC(=O)N(C)SN(C)C(=O)Oc1cccc2c1OC(C2)(C)C,CCCCOC(=O)N(C)SN(C)C(=O)OC=1C=CC=C2C1OC(C2)(C)C,-4.583
HAXBIWFMXWRORI-UHFFFAOYSA-N,benzo[k]fluoranthene,c1ccc2cc3c(cc2c1)-c1cccc2cccc-3c12,c1ccc2cc-3c(cc2c1)-c4cccc5c4c3ccc5,C=1C=CC=2C=C3C(=CC2C1)C=4C=CC=C5C4C3=CC=C5,-8.49
HAXZNPSPJMKMIQ-UHFFFAOYSA-N,Nalidixic acid methyl ester;  METHYL  NALIDIXATE,CCn1cc(C(=O)OC)c(=O)c2ccc(C)nc21,CCn1cc(c(=O)c2c1nc(cc2)C)C(=O)OC,CCN1C=C(C(=O)C2=C1N=C(C=C2)C)C(=O)OC,-2.7
HAYHSKSXKLGQMB-UHFFFAOYSA-N,,CCN(Cc1cc(Br)ccc1OCc1ccccc1)c1ccc(-c2nnn[nH]2)nn1,CCN(Cc1cc(ccc1OCc2ccccc2)Br)c3ccc(nn3)c4[nH]nnn4,CCN(CC=1C=C(C=CC1OCC=2C=CC=CC2)Br)C=3C=CC(=NN3)C4=NN=NN4,-3.6234230000000003
HBAQDOUFKXLJKV-UHFFFAOYSA-N,4-Terpineol,CC(C)(C)C1CC=C(O)CC1,CC(C)(C)C1CCC(=CC1)O,CC(C)(C)C1CCC(=CC1)O,-2.06
HBDPNIKSHRQAJF-UHFFFAOYSA-N,"propane-2,2-diylbis(4,1-phenyleneoxyethane-2,1-diyl) diacetate",CC(=O)OCCOc1ccc(C(C)(C)c2ccc(OCCOC(C)=O)cc2)cc1,CC(=O)OCCOc1ccc(cc1)C(C)(C)c2ccc(cc2)OCCOC(=O)C,CC(=O)OCCOC=1C=CC(=CC1)C(C)(C)C=2C=CC(=CC2)OCCOC(=O)C,-8.058751513999999
HBEWADIWKZVJSD-UHFFFAOYSA-N,"ACETAMIDE, 2-(BENZOYLOXY)-",NC(=O)COC(=O)c1ccccc1,c1ccc(cc1)C(=O)OCC(=O)N,NC(=O)COC(=O)C=1C=CC=CC1,-1.6405
HBFJJKFTOQAJHO-UHFFFAOYSA-N,7-ethylbenz[a]anthracene,CCc1c2ccccc2cc2c1ccc1ccccc12,CCc1c2ccccc2cc3c1ccc4c3cccc4,CCC=1C=2C=CC=CC2C=C3C1C=CC4=C3C=CC=C4,-6.796
HBGGXOJOCNVPFY-UHFFFAOYSA-N,DIISONONYL PHTHALATE,CC(C)CCCCCCOC(=O)c1ccccc1C(=O)OCCCCCCC(C)C,CC(C)CCCCCCOC(=O)c1ccccc1C(=O)OCCCCCCC(C)C,CC(C)CCCCCCOC(=O)C=1C=CC=CC1C(=O)OCCCCCCC(C)C,-6.47140895
HBHGSVQQEYTFFZ-UHFFFAOYSA-N,"6,7-DIMETHYLPTERIDINE",Cc1nc2cncnc2nc1C,Cc1c(nc2c(n1)cncn2)C,CC1=NC2=C(N=CN=C2)N=C1C,-0.46
HBJOCXPMFGHEFX-UHFFFAOYSA-N,,COc1cc2c(Nc3ccc(NC(=O)c4ccccc4)cc3)ncnc2cc1OCCOP(=O)(O)O,COc1cc2c(cc1OCCOP(=O)(O)O)ncnc2Nc3ccc(cc3)NC(=O)c4ccccc4,COC=1C=C2C(=NC=NC2=CC1OCCOP(=O)(O)O)NC=3C=CC(=CC3)NC(=O)C=4C=CC=CC4,-5.920818799999999
HBJOXQRURQPDEX-UHFFFAOYSA-N,,CCC1CCNC(C(=O)NC(C(C)Cl)C2OC(SC)C(O)C(O)C2O)C1,CCC1CCNC(C1)C(=O)NC(C2C(C(C(C(O2)SC)O)O)O)C(C)Cl,O1C(C(C(C(C1SC)O)O)O)C(NC(=O)C2NCCC(C2)CC)C(C)Cl,-0.7687
HBKLYMLLDJGHBM-UHFFFAOYSA-N,,NC(=O)Nc1sc(-c2ccccc2OCCN2CCSCC2)cc1C(N)=O,c1ccc(c(c1)c2cc(c(s2)NC(=O)N)C(=O)N)OCCN3CCSCC3,NC(=O)NC=1SC(=CC1C(=O)N)C=2C=CC=CC2OCCN3CCSCC3,-5.6611965
HBKSATMAGKPAML-UHFFFAOYSA-N,,Cc1ccc(NC(=O)c2cccc(OC(F)(F)C(F)F)c2)cc1-n1cnc2ccc(N3CCN(C)CC3)cc2c1=O,Cc1ccc(cc1n2cnc3ccc(cc3c2=O)N4CCN(CC4)C)NC(=O)c5cccc(c5)OC(C(F)F)(F)F,CN1CCN(CC1)C=2C=CC=3N=CN(C(=O)C3C2)C=4C=C(C=CC4C)NC(=O)C=5C=CC=C(C5)OC(F)(F)C(F)F,-5.05061
HBMFSXMMRNCYAR-UHFFFAOYSA-N,,CC(C)NCCCNc1ccc(Nc2ncc(Br)c(Nc3ccccn3)n2)cc1,CC(C)NCCCNc1ccc(cc1)Nc2ncc(c(n2)Nc3ccccn3)Br,CC(C)NCCCNC=1C=CC(=CC1)NC=2N=CC(=C(N2)NC=3C=CC=CN3)Br,-2.6197888
HBNPJJILLOYFJU-UHFFFAOYSA-N,mibefradil dihydrochloride,COCC(=O)O[C@]1(CCN(C)CCCc2nc3ccccc3[nH]2)CCc2cc(F)ccc2[C@@H]1C(C)C,CC(C)[C@H]1c2ccc(cc2CC[C@@]1(CCN(C)CCCc3[nH]c4ccccc4n3)OC(=O)COC)F,CC(C)[C@H]1C2=C(C=C(C=C2)F)CC[C@@]1(CCN(C)CCCC3=NC4=CC=CC=C4N3)OC(=O)COC,-1.3009918040000001
HBOMLICNUCNMMY-UHFFFAOYSA-N,Zidovudine,Cc1cn([C@H]2C[C@H](N=[N+]=[N-])[C@@H](CO)O2)c(=O)[nH]c1=O,Cc1cn(c(=O)[nH]c1=O)[C@H]2C[C@@H]([C@H](O2)CO)N=[N+]=[N-],O1C(CC(C1CO)N=[N+]=[N-])N2C=C(C(=O)NC2=O)C,-1.123705406
HBPDKDSFLXWOAE-UHFFFAOYSA-N,"tebuthiuron; 2-tert-butyl-5-(1,3-dimethyl)ureido-1,3,4-thiadiazole; 1-(5-tert-butyl-1,3,4-thiadiazol-2-yl)-1,3-dimethylurea",CNC(=O)N(C)c1nnc(C(C)(C)C)s1,CC(C)(C)c1nnc(s1)N(C)C(=O)NC,CNC(=O)N(C)C=1SC(=NN1)C(C)(C)C,-1.9788
HBUROESZWYWHFQ-UHFFFAOYSA-N,bis(9E)-octadec-9-en-1-yl phosphonate,CCCCCCCC/C=C/CCCCCCCCO[P+](=O)OCCCCCCCC/C=C/CCCCCCCC,CCCCCCCC/C=C/CCCCCCCCO[P+](=O)OCCCCCCCC/C=C/CCCCCCCC,CCCCCCCC/C=C/CCCCCCCCO[P+](=O)OCCCCCCCC/C=C/CCCCCCCC,-9.534209794
HBVOLZAKVSHTFL-UHFFFAOYSA-N,"ALLOPURINOL, 1-ACETYL-",CC(=O)n1ncc2c(O)ncnc21,CC(=O)n1c2c(cn1)c(ncn2)O,N1(C=2C(=C(N=CN2)O)C=N1)C(=O)C,-2.378
HBXWAITUZKDDNP-UHFFFAOYSA-N,BENFURESATE,CCOS(=O)(=O)c1cccc2c1C(C)(C)CO2,CCOS(=O)(=O)c1cccc2c1C(CO2)(C)C,S(=O)(=O)(C1=C2C(=CC=C1)OCC2(C)C)OCC,-2.992
HBXWUCXDUUJDRB-UHFFFAOYSA-N,1-(Octadecyloxy)octadecane,CCCCCCCCCCCCCCCCCCOCCCCCCCCCCCCCCCCCC,CCCCCCCCCCCCCCCCCCOCCCCCCCCCCCCCCCCCC,CCCCCCCCCCCCCCCCCCOCCCCCCCCCCCCCCCCCC,-7.019760445
HBZVNWNSRNTWPS-UHFFFAOYSA-N,6-amino-4-hydroxynaphthalene-2-sulfonic acid,Nc1ccc2cc(S(=O)(=O)O)cc(O)c2c1,c1cc(cc2c1cc(cc2O)S(=O)(=O)O)N,NC=1C=CC=2C=C(C=C(C2C1)O)S(=O)(=O)O,-2.88315562
HCAUQPZEWLULFJ-UHFFFAOYSA-N,benzo(f)quinoline,c1ccc2c(c1)ccc1ncccc12,c1ccc2c(c1)ccc3c2cccn3,C=1C=CC=2C(C1)=CC=C3C2C=CC=N3,-3.3574
HCAXJTPBJBEHDB-UHFFFAOYSA-N,,CC(C)OC(=O)C(CCS(C)(=O)=O)NC(=O)c1cc(OCC2CC(SC(=O)c3cccnc3)CN2)ccc1CCc1ccc(F)cc1,CC(C)OC(=O)C(CCS(=O)(=O)C)NC(=O)c1cc(ccc1CCc2ccc(cc2)F)OCC3CC(CN3)SC(=O)c4cccnc4,CC(C)OC(=O)C(CCS(=O)(=O)C)NC(=O)C=1C=C(C=CC1CCC=2C=CC(=CC2)F)OCC3CC(CN3)SC(=O)C=4C=CC=NC4,-5.0457575
HCBHHMUMLKPGQL-UHFFFAOYSA-N,8-Phenyl-7H-purine,C1=NC=NC2N=C(c3ccccc3)N=C12,c1ccc(cc1)C2=NC3C(=N2)C=NC=N3,C1=CC=C(C=C1)C2=NC3N=CN=CC3=N2,-3.0675
HCDJVEYJSSTYSW-UHFFFAOYSA-N,2-isopropoxyethyl acetate,CC(=O)OCCOC(C)C,CC(C)OCCOC(=O)C,CC(C)OCCOC(=O)C,-0.165787621
HCFDWZZGGLSKEP-UHFFFAOYSA-N,"N,N-dimethyl-2-(1-phenyl-1-pyridin-2-ylethoxy)ethanamine",CN(C)CCOC(C)(c1ccccc1)c1ccccn1,CC(c1ccccc1)(c2ccccn2)OCCN(C)C,CN(C)CCOC(C)(C1=CC=CC=C1)C2=CC=CC=N2,-2.82
HCFSGRMEEXUOSS-UHFFFAOYSA-N,Medrogestone,CC(=O)C1(C)CCC2C3C=C(C)C4=CC(=O)CCC4(C)C3CCC21C,CC1=CC2C(CCC3(C2CCC3(C)C(=O)C)C)C4(C1=CC(=O)CC4)C,O=C(C1(C2(C(C3C(CC2)C4(C(=CC(=O)CC4)C(=C3)C)C)CC1)C)C)C,-5.27
HCFYDULVKOUISH-UHFFFAOYSA-N,"N1,N1,N4-TRIMETHYL-N4-pentanoylSULFANILAMIDE",CCCCC(=O)N(C)c1ccc(S(=O)(=O)N(C)C)cc1,CCCCC(=O)N(C)c1ccc(cc1)S(=O)(=O)N(C)C,CCCCC(=O)N(C)C1=CC=C(C=C1)S(=O)(=O)N(C)C,-2.85
HCHRSYLSCJROCA-UHFFFAOYSA-N,"ALLOPURINOL, 1-[NICOTINOYLOXYMETHYL]-",O=C(OCn1ncc2c(O)ncnc21)c1cccnc1,c1cc(cnc1)C(=O)OCn2c3c(cn2)c(ncn3)O,N1(C=2C(=C(N=CN2)O)C=N1)COC(=O)C=3C=NC=CC3,-3.465
HCIBTBXNLVOFER-UHFFFAOYSA-N,Diphenylcyclopropenone,O=c1c(-c2ccccc2)c1-c1ccccc1,c1ccc(cc1)c2c(c2=O)c3ccccc3,C1=CC=C(C=C1)C=2C(=O)C2C3=CC=CC=C3,-3.485
HCILJBJJZALOAL-UHFFFAOYSA-N,"3-(3,5-di-tert-butyl-4-hydroxyphenyl)-N'-[3-(3,5-di-tert-butyl-4-hydroxyphenyl)propanoyl]propanehydrazide",CC(C)(C)c1cc(CCC(=O)NNC(=O)CCc2cc(C(C)(C)C)c(O)c(C(C)(C)C)c2)cc(C(C)(C)C)c1O,CC(C)(C)c1cc(cc(c1O)C(C)(C)C)CCC(=O)NNC(=O)CCc2cc(c(c(c2)C(C)(C)C)O)C(C)(C)C,CC(C)(C)C=1C=C(C=C(C1O)C(C)(C)C)CCC(=O)NNC(=O)CCC=2C=C(C(=C(C2)C(C)(C)C)O)C(C)(C)C,-7.04359803
HCIVWNSEQDIFTJ-UHFFFAOYSA-N,,COc1cc2ncnc(Nc3ccc(F)c(Cl)c3)c2cc1NS(=O)(=O)CCN1CCN(C)CC1,CN1CCN(CC1)CCS(=O)(=O)Nc2cc3c(cc2OC)ncnc3Nc4ccc(c(c4)Cl)F,COC=1C=C2N=CN=C(C2=CC1NS(=O)(=O)CCN3CCN(CC3)C)NC=4C=CC(=C(C4)Cl)F,-4.7447275
HCJMNOSIAGSZBM-UHFFFAOYSA-N,6-Methylsalicylic acid; 2-Hydroxy-6-methylbenzoic acid,Cc1cccc(O)c1C(=O)O,Cc1cccc(c1C(=O)O)O,CC1=CC=CC(=C1C(=O)O)O,-2.04
HCKUOPXBZCRCKN-UHFFFAOYSA-N,"Heptanoic acid, 2,4-dioxo-",CCCC(=O)CC(=O)C(=O)O,CCCC(=O)CC(=O)C(=O)O,C(=O)(C(=O)O)CC(=O)CCC,-0.6193
HCLJOFJIQIJXHS-UHFFFAOYSA-N,2-(2-{2-[2-(prop-2-enoyloxy)ethoxy]ethoxy}ethoxy)ethyl prop-2-enoate,C=CC(=O)OCCOCCOCCOCCOC(=O)C=C,C=CC(=O)OCCOCCOCCOCCOC(=O)C=C,C=CC(=O)OCCOCCOCCOCCOC(=O)C=C,-0.5000066479999999
HCMVOGRIKDIQJM-UHFFFAOYSA-N,,COc1cc2c(Nc3ccc(NC(=O)c4ccccc4)cc3)ncnc2cc1OCC(O)CNc1cc(C)n[nH]1,Cc1cc([nH]n1)NCC(COc2cc3c(cc2OC)c(ncn3)Nc4ccc(cc4)NC(=O)c5ccccc5)O,COC=1C=C2C(=NC=NC2=CC1OCC(O)CNC3=CC(=NN3)C)NC=4C=CC(=CC4)NC(=O)C=5C=CC=CC5,-5.1135093000000005
HCOYTIPJLYJCDR-UHFFFAOYSA-N,"2-[[4-(diethylamino)-2-methylphenyl]azo]-5-nitrobenzene-1,3-dicarbonitrile",CCN(CC)c1ccc(/N=N/c2c(C#N)cc([N+](=O)[O-])cc2C#N)c(C)c1,CCN(CC)c1ccc(c(c1)C)/N=N/c2c(cc(cc2C#N)[N+](=O)[O-])C#N,CCN(CC)C=1C=CC(=C(C1)C)/N=N/C=2C(=CC(=CC2C#N)[N+](=O)[O-])C#N,-7.472909985
HCQDGTHSLFFEBG-UHFFFAOYSA-N,,CN(C(=O)C1CCC1)C1CCN(CCC(c2ccccc2)c2ccccc2)CC1,CN(C1CCN(CC1)CCC(c2ccccc2)c3ccccc3)C(=O)C4CCC4,CN(C1CCN(CC1)CCC(C=2C=CC=CC2)C=3C=CC=CC3)C(=O)C4CCC4,-3.5528419999999996
HCQSWAXEJLAQFZ-UHFFFAOYSA-N,"Boc-Phe-His-Sta-Leu-NHCH2-Ph--3-CH2NH2, analog 11",CC(C)CC(NC(=O)CC(O)C(CC(C)C)NC(=O)C(Cc1c[nH]cn1)NC(=O)C(Cc1ccccc1)NC(=O)OC(C)(C)C)C(=O)NCc1cccc(CN)c1,CC(C)CC(C(CC(=O)NC(CC(C)C)C(=O)NCc1cccc(c1)CN)O)NC(=O)C(Cc2c[nH]cn2)NC(=O)C(Cc3ccccc3)NC(=O)OC(C)(C)C,CC(C)CC(NC(=O)C(CC1=CNC=N1)NC(=O)C(CC2=CC=CC=C2)NC(=O)OC(C)(C)C)C(O)CC(=O)NC(CC(C)C)C(=O)NCC3=CC=CC(=C3)CN,-2.85
HCRWJJJUKUVORR-UHFFFAOYSA-N,"desmetryne;  2-methylthio-4-methylamino-6-isopropylamino-1,3,5-triazine",CNc1nc(NC(C)C)nc(SC)n1,CC(C)Nc1nc(nc(n1)SC)NC,CNC=1N=C(N=C(N1)SC)NC(C)C,-2.5658
HCSHBEBCJXFTCD-UHFFFAOYSA-N,,CC(O)(C(=O)Nc1ccc(S(=O)(=O)NC2CCC2)cc1Cl)C(F)(F)F,CC(C(=O)Nc1ccc(cc1Cl)S(=O)(=O)NC2CCC2)(C(F)(F)F)O,CC(O)(C(=O)NC=1C=CC(=CC1Cl)S(=O)(=O)NC2CCC2)C(F)(F)F,-3.19382
HCSHMBMQVIHQEA-UHFFFAOYSA-N,,Cc1cc(-c2ccc(C(=O)N3CCN(S(=O)(=O)c4ccc5cc(Br)ccc5c4)CC3)cc2)ccn1,Cc1cc(ccn1)c2ccc(cc2)C(=O)N3CCN(CC3)S(=O)(=O)c4ccc5cc(ccc5c4)Br,CC=1C=C(C=CN1)C=2C=CC(=CC2)C(=O)N3CCN(CC3)S(=O)(=O)C=4C=CC=5C=C(C=CC5C4)Br,-6.2757241
HCTFEPDEGBYVHP-UHFFFAOYSA-N,"2-[4-[(4-methoxyphenyl)methyl]-2,5-dioxoimidazolidin-1-yl]propanoic acid",COc1ccc(CC2NC(=O)N(C(C)C(=O)O)C2=O)cc1,CC(C(=O)O)N1C(=O)C(NC1=O)Cc2ccc(cc2)OC,N1(C(=O)C(NC1=O)CC2=CC=C(C=C2)OC)C(C(=O)O)C,-0.861
HCTZIQZRNRMQHE-UHFFFAOYSA-N,,O=C(CN1CCC(N2C(=O)OCc3ccccc32)CC1)Nc1ccc(N2CCOCC2)c(Cl)c1,c1ccc2c(c1)COC(=O)N2C3CCN(CC3)CC(=O)Nc4ccc(c(c4)Cl)N5CCOCC5,ClC=1C=C(C=CC1N2CCOCC2)NC(=O)CN3CCC(CC3)N4C(=O)OCC5=C4C=CC=C5,-6.2076082999999995
HCUXKVFCFSVKHK-UHFFFAOYSA-N,"1H-Purine-2,6,8(3H)-trione, 7,9-dihydro-3,9-dime",Cn1c(=O)[nH]c(=O)c2[nH]c(=O)n(C)c21,Cn1c2c(c(=O)[nH]c(=O)n2C)[nH]c1=O,O=C1N(C2=C(C(=O)N1)NC(=O)N2C)C,-2.568
HCUZVMHXDRSBKX-UHFFFAOYSA-N,DECYLPROPANEDIOIC ACID,CCCCCCCCCCC(C(=O)O)C(=O)O,CCCCCCCCCCC(C(=O)O)C(=O)O,CCCCCCCCCCC(C(=O)O)C(=O)O,-3.99
HCWZEPKLWVAEOV-UHFFFAOYSA-N,"2,2ť,5,5ť-pcb",Clc1ccc(Cl)c(-c2cc(Cl)ccc2Cl)c1,c1cc(c(cc1Cl)c2cc(ccc2Cl)Cl)Cl,ClC=1C=CC(=C(C1)C=2C=C(C=CC2Cl)Cl)Cl,-7.02
HCYAFALTSJYZDH-UHFFFAOYSA-N,desipramine hydrochloride,CNCCCN1c2ccccc2CCc2ccccc21,CNCCCN1c2ccccc2CCc3c1cccc3,N1(C=2C(=CC=CC2)CCC3=C1C=CC=C3)CCCNC,-3.6576085210000002
HCYRYXOVPYSSBC-UHFFFAOYSA-N,,COC1CN(C)C(=O)c2ccc(NS(=O)(=O)c3cn(C)cn3)cc2OCC(C)N(CCC(F)(F)F)CC1C,CC1CN(C(COc2cc(ccc2C(=O)N(CC1OC)C)NS(=O)(=O)c3cn(cn3)C)C)CCC(F)(F)F,COC1CN(C(=O)C2=CC=C(C=C2OCC(N(CC1C)CCC(F)(F)F)C)NS(=O)(=O)C3=CN(C=N3)C)C,-4.039
HCZDHXMDYWZPPN-UHFFFAOYSA-N,"Benzenesulfonamide, 3-amino-4-methyl-",Cc1ccc(S(N)(=O)=O)cc1N,Cc1ccc(cc1N)S(=O)(=O)N,S(=O)(=O)(C=1C=C(C(=CC1)C)N)N,-1.91695
HDACQVRGBOVJII-UHFFFAOYSA-N,ramipril,CCOC(=O)[C@H](CCc1ccccc1)N[C@@H](C)C(=O)N1[C@H](C(=O)O)C[C@@H]2CCC[C@@H]21,CCOC(=O)[C@H](CCc1ccccc1)N[C@@H](C)C(=O)N2[C@H]3CCC[C@H]3C[C@H]2C(=O)O,CCOC(=O)[C@H](CCC1=CC=CC=C1)N[C@@H](C)C(=O)N2[C@H]3CCC[C@H]3C[C@H]2C(=O)O,-3.665382923