inchikey,Name,SMILES_stand,SMILES,kekSmiles,logS
IPABBDLXSJIQEG-UHFFFAOYSA-N,Methyl (1-(4-bromo)phenylsulfonyl) cyclopropane,COC(=O)C1(S(=O)(=O)c2ccc(Br)cc2)CC1,COC(=O)C1(CC1)S(=O)(=O)c2ccc(cc2)Br,COC(=O)C1(CC1)S(=O)(=O)C=2C=CC(=CC2)Br,-3.67
IPBRZLMGGXHHMS-UHFFFAOYSA-N,2-Chlorodiphenyl ether,Clc1ccccc1Oc1ccccc1,c1ccc(cc1)Oc2ccccc2Cl,O(C1=CC=CC=C1Cl)C2=CC=CC=C2,-4.78
IPBVNPXQWQGGJP-UHFFFAOYSA-N,Phenyl Acetate,CC(=O)Oc1ccccc1,CC(=O)Oc1ccccc1,CC(=O)OC=1C=CC=CC1,-1.373797581
IPCSVZSSVZVIGE-UHFFFAOYSA-N,palmitic_acid,CCCCCCCCCCCCCCCC(=O)O,CCCCCCCCCCCCCCCC(=O)O,O=C(O)CCCCCCCCCCCCCCC,-6.809999
IPDKSGJFMBIZJI-UHFFFAOYSA-N,"Benzenesulfonamide, 4-amino-N-(5,6,7,8-tetrahydr",Nc1ccc(S(=O)(=O)Nc2ncc3c(n2)CCCC3)cc1,c1cc(ccc1N)S(=O)(=O)Nc2ncc3c(n2)CCCC3,NC1=CC=C(C=C1)S(=O)(=O)NC2=NC3=C(C=N2)CCCC3,-3.6505
IPDXRZRYECIGBZ-UHFFFAOYSA-N,,COc1ccc(Nc2nc(Nc3ccc(C(=O)NCCN4CC5CCC(C4)O5)cc3)ncc2Br)cc1,COc1ccc(cc1)Nc2c(cnc(n2)Nc3ccc(cc3)C(=O)NCCN4CC5CCC(C4)O5)Br,COC=1C=CC(=CC1)NC=2N=C(N=CC2Br)NC=3C=CC(=CC3)C(=O)NCCN4CC5CCC(C4)O5,-6.0409586
IPENDKRRWFURRE-UHFFFAOYSA-N,SPARTICIDE,O=C1C(Cl)=C(Cl)C(=O)N1c1ccc(F)cc1,c1cc(ccc1N2C(=O)C(=C(C2=O)Cl)Cl)F,N1(C(=O)C(=C(C1=O)Cl)Cl)C=2C=CC(=CC2)F,-4.644
IPFNAUPOYDTTJP-UHFFFAOYSA-N,,CNCCNC(=O)C(C)(C)Oc1ccccc1Oc1ccc(Nc2c(C#N)cnc3cc(OC)c(OC)cc23)cc1,CC(C)(C(=O)NCCNC)Oc1ccccc1Oc2ccc(cc2)Nc3c4cc(c(cc4ncc3C#N)OC)OC,CNCCNC(=O)C(C)(C)OC=1C=CC=CC1OC=2C=CC(=CC2)NC=3C(=CN=C4C3C=C(C(=C4)OC)OC)C#N,-4.5606672999999995
IPHKVWAKDXKJRE-UHFFFAOYSA-N,"8-(4-hydroxybutyl)-4H-thieno[3,2-c][1]benzoxepin-10-one",O=C1c2cc(CCCCO)ccc2OCc2ccsc21,c1cc2c(cc1CCCCO)C(=O)c3c(ccs3)CO2,O=C1C2=C(C=CC(=C2)CCCCO)OCC3=C1SC=C3,-3.918
IPKKEQNOAYRUSL-UHFFFAOYSA-N,,COCCOc1cc2ncnc(Nc3ccc(C)c(O)c3)c2cc1OC,Cc1ccc(cc1O)Nc2c3cc(c(cc3ncn2)OCCOC)OC,COCCOC=1C=C2N=CN=C(C2=CC1OC)NC=3C=CC(=C(C3)O)C,-6.30103
IPKKHRVROFYTEK-UHFFFAOYSA-N,"dipentyl benzene-1,2-dicarboxylate",CCCCCOC(=O)c1ccccc1C(=O)OCCCCC,CCCCCOC(=O)c1ccccc1C(=O)OCCCCC,CCCCCOC(=O)C1=C(C=CC=C1)C(=O)OCCCCC,-3.488
IPMMTXKRBQNHRU-UHFFFAOYSA-N,,COc1cc(C(=O)NS(=O)(=O)c2ccccc2)ccc1Cn1ccc2ccc(NC(=O)OC3CCC3)cc21,COc1cc(ccc1Cn2ccc3c2cc(cc3)NC(=O)OC4CCC4)C(=O)NS(=O)(=O)c5ccccc5,COC=1C=C(C=CC1CN2C=CC3=C2C=C(C=C3)NC(=O)OC4CCC4)C(=O)NS(=O)(=O)C=5C=CC=CC5,-5.3767507000000005
IPMUTZTYLNNIFE-UHFFFAOYSA-N,,Cc1ccc(NC(=O)c2cc(F)cc(N3CCOCC3)c2)cc1NC(=O)c1ccc(NCCN(C)C)nc1,Cc1ccc(cc1NC(=O)c2ccc(nc2)NCCN(C)C)NC(=O)c3cc(cc(c3)F)N4CCOCC4,CN(C)CCNC=1C=CC(=CN1)C(=O)NC=2C=C(C=CC2C)NC(=O)C=3C=C(C=C(C3)N4CCOCC4)F,-4.091515
IPOBOOXFSRWSHL-UHFFFAOYSA-N,cibenzoline,c1ccc(C2(c3ccccc3)CC2C2=NCCN2)cc1,c1ccc(cc1)C2(CC2C3=NCCN3)c4ccccc4,C1CN=C(N1)C2CC2(C3=CC=CC=C3)C4=CC=CC=C4,-1.7199110640000002
IPPAUTOBDWNELX-UHFFFAOYSA-N,FLUOROGLYCOFENETHYL,CCOC(=O)COC(=O)c1cc(Oc2ccc(C(F)(F)F)cc2Cl)ccc1[N+](=O)[O-],CCOC(=O)COC(=O)c1cc(ccc1[N+](=O)[O-])Oc2ccc(cc2Cl)C(F)(F)F,CCOC(=O)COC(=O)C=1C=C(C=CC1[N+](=O)[O-])OC=2C=CC(=CC2Cl)C(F)(F)F,-5.87295
IPPWILKGXFOXHO-UHFFFAOYSA-N,Chloranilic acid,O=C1C(O)=C(Cl)C(=O)C(O)=C1Cl,C1(=C(C(=O)C(=C(C1=O)Cl)O)Cl)O,C1(=C(C(=O)C(=C(C1=O)O)Cl)O)Cl,-2.041
IPPYBNCEPZCLNI-UHFFFAOYSA-N,TRIMETHYLOLETHANE TRINITRATE,CC(CO[N+](=O)[O-])(CO[N+](=O)[O-])CO[N+](=O)[O-],CC(CO[N+](=O)[O-])(CO[N+](=O)[O-])CO[N+](=O)[O-],[N+](=O)([O-])OCC(CO[N+](=O)[O-])(CO[N+](=O)[O-])C,-2.694
IPRJXAGUEGOFGG-UHFFFAOYSA-N,N-Butylbenzenesulfonamide,CCCCNS(=O)(=O)c1ccccc1,CCCCNS(=O)(=O)c1ccccc1,CCCCNS(=O)(=O)C=1C=CC=CC1,-2.676
IPSDRODYBSMOKN-UHFFFAOYSA-N,,O=C(NCc1ccc(F)c(F)c1)c1ccnc(Nc2ccccc2)c1,c1ccc(cc1)Nc2cc(ccn2)C(=O)NCc3ccc(c(c3)F)F,FC=1C=CC(=CC1F)CNC(=O)C=2C=CN=C(C2)NC=3C=CC=CC3,-5.537602
IPSKWLCJIMOCCD-UHFFFAOYSA-N,,CCN(CC)CCN(C)S(=O)(=O)c1ccc(Nc2ncc(C#N)c(NC3CC3)n2)cc1,CCN(CC)CCN(C)S(=O)(=O)c1ccc(cc1)Nc2ncc(c(n2)NC3CC3)C#N,CCN(CC)CCN(C)S(=O)(=O)C=1C=CC(=CC1)NC=2N=CC(=C(N2)NC3CC3)C#N,-3.3665315000000002
IPTKKJGETHXGTN-UHFFFAOYSA-N,,CNC(=O)c1ccc(Nc2ccc3c(c2)c2ccccc2n3C(C)C)nn1,CC(C)n1c2ccccc2c3c1ccc(c3)Nc4ccc(nn4)C(=O)NC,CNC(=O)C=1C=CC(=NN1)NC=2C=CC=3N(C=4C=CC=CC4C3C2)C(C)C,-5.9586073
IPUCHPPTULKYHS-UHFFFAOYSA-N,,Cc1ccc(NC(=O)c2cccnc2)cc1-n1cnc2ccc(N3CCN(C)CC3)cc2c1=O,Cc1ccc(cc1n2cnc3ccc(cc3c2=O)N4CCN(CC4)C)NC(=O)c5cccnc5,CN1CCN(CC1)C=2C=CC=3N=CN(C(=O)C3C2)C=4C=C(C=CC4C)NC(=O)C=5C=CC=NC5,-3.60206
IPUINJUUPPULSR-UHFFFAOYSA-N,,Cc1c(-c2ccc(Cl)cc2)sc(N(C)C(N)=O)c1C(N)=O,Cc1c(c(sc1c2ccc(cc2)Cl)N(C)C(=O)N)C(=O)N,CN(C(=O)N)C=1SC(=C(C1C(=O)N)C)C=2C=CC(=CC2)Cl,-3.7447275
IPVFGAYTKQKGBM-UHFFFAOYSA-N,fialuridine,O=c1[nH]c(=O)n([C@@H]2O[C@H](CO)[C@@H](O)[C@@H]2F)cc1I,c1c(c(=O)[nH]c(=O)n1[C@H]2[C@H]([C@@H]([C@H](O2)CO)O)F)I,C1=C(C(=O)NC(=O)N1[C@H]2[C@H]([C@@H]([C@H](O2)CO)O)F)I,-2.269618003
IPWLQQBKTBBLID-UHFFFAOYSA-N,"Benzeneethanol, 4-hydroxy-3-nitro-",O=[N+]([O-])c1cc(CCO)ccc1O,c1cc(c(cc1CCO)[N+](=O)[O-])O,OCCC=1C=CC(=C(C1)[N+](=O)[O-])O,-1.156
IPWQOZCSQLTKOI-UHFFFAOYSA-N,"DL-Phenylalanine, N-(aminocarbonyl)-",NC(=O)N[C@@H](Cc1ccccc1)C(=O)O,c1ccc(cc1)C[C@@H](C(=O)O)NC(=O)N,NC(=O)N[C@@H](CC=1C=CC=CC1)C(=O)O,-2.096
IPXPZIIPGMVXCO-UHFFFAOYSA-N,,COc1cc(OCC(=O)Nc2cccc(OCCCC(=O)O)c2)cc2oc(Nc3ccccc3)nc12,COc1cc(cc2c1nc(o2)Nc3ccccc3)OCC(=O)Nc4cccc(c4)OCCCC(=O)O,COC=1C=C(C=C2C1N=C(O2)NC=3C=CC=CC3)OCC(=O)NC=4C=CC=C(C4)OCCCC(=O)O,-4.7695511
IPYHMQWSXUYBFX-UHFFFAOYSA-N,"Salicylic acid, 5-(2H-benzotriazol-2-yl)-",O=C(O)c1cc(-n2nc3ccccc3n2)ccc1O,c1ccc2c(c1)nn(n2)c3ccc(c(c3)C(=O)O)O,O=C(C1=CC(=CC=C1O)N2N=C3C=CC=CC3=N2)O,-3.009
IQAJFQWWOBREAQ-UHFFFAOYSA-N,,COc1cc2c(Nc3ccc(NC(=O)c4ccccc4)cc3)ncnc2cc1OCCNCCCCO,COc1cc2c(cc1OCCNCCCCO)ncnc2Nc3ccc(cc3)NC(=O)c4ccccc4,COC=1C=C2C(=NC=NC2=CC1OCCNCCCCO)NC=3C=CC(=CC3)NC(=O)C=4C=CC=CC4,-3.1152046
IQBYQOSLOKCNEV-UHFFFAOYSA-N,,COc1cc2c(Nc3cnc(CNc4cccc(F)c4)nc3)ncnc2cc1OCCCNC(C)(C)CCO,CC(C)(CCO)NCCCOc1cc2c(cc1OC)c(ncn2)Nc3cnc(nc3)CNc4cccc(c4)F,COC=1C=C2C(=NC=NC2=CC1OCCCNC(C)(C)CCO)NC=3C=NC(=NC3)CNC=4C=CC=C(C4)F,-2.9208187999999997
IQCHGCYXAYFUKR-UHFFFAOYSA-N,,C#CCOc1nc(Nc2ccc(S(=O)(=O)NCCCOC)cc2)ncc1C#N,COCCCNS(=O)(=O)c1ccc(cc1)Nc2ncc(c(n2)OCC#C)C#N,COCCCNS(=O)(=O)C=1C=CC(=CC1)NC=2N=CC(=C(N2)OCC#C)C#N,-4.7695511
IQCHKMQERZPOIJ-UHFFFAOYSA-N,7-Methylpteridine,Cc1cnc2ncncc2n1,Cc1cnc2c(n1)cncn2,CC1=CN=C2N=CN=CC2=N1,0.06
IQEJEZOCXWJNKR-UHFFFAOYSA-N,"BENZENAMINE, N-METHYL-2,4-DINITRO-",CNc1ccc([N+](=O)[O-])cc1[N+](=O)[O-],CNc1ccc(cc1[N+](=O)[O-])[N+](=O)[O-],C=1(C=C(C=CC1NC)[N+](=O)[O-])[N+](=O)[O-],-3.9939999999999998
IQFYYKKMVGJFEH-UHFFFAOYSA-N,Thymidine,Cc1cn(C2CC(O)C(CO)O2)c(=O)[nH]c1=O,Cc1cn(c(=O)[nH]c1=O)C2CC(C(O2)CO)O,CC1=CN(C(=O)NC1=O)C2CC(C(O2)CO)O,-0.7420810440000001
IQGIEMYBDGDBMR-UHFFFAOYSA-N,3-methyl-5-(prop-2-enoyloxy)pentyl prop-2-enoate,C=CC(=O)OCCC(C)CCOC(=O)C=C,CC(CCOC(=O)C=C)CCOC(=O)C=C,CC(CCOC(=O)C=C)CCOC(=O)C=C,-2.621216776
IQGKIPDJXCAMSM-UHFFFAOYSA-N,"triazoxide;  7-chloro-3-(1h-imidazol-1-yl)-1,2,4-benzotriazine 1-oxide",[O-][n+]1nc(-n2ccnc2)nc2ccc(Cl)cc21,c1cc2c(cc1Cl)[n+](nc(n2)n3ccnc3)[O-],[O-][N+]=1N=C(N=C2C1C=C(C=C2)Cl)N3C=CN=C3,-3.862
IQGNXABUVDIOGO-UHFFFAOYSA-N,,CCn1c2ccc(Nc3ccc(C(N)=O)nn3)cc2c2cccnc21,CCn1c2ccc(cc2c3c1nccc3)Nc4ccc(nn4)C(=O)N,CCN1C=2C=CC(=CC2C3=C1N=CC=C3)NC=4C=CC(=NN4)C(=O)N,-5.721246400000001
IQJONTHXEYNKMB-UHFFFAOYSA-N,"Butanoic acid, 2,2'-thiobis-, meso",CCC(SC(CC)C(=O)O)C(=O)O,CCC(C(=O)O)SC(CC)C(=O)O,CCC(SC(CC)C(=O)O)C(=O)O,-0.7075
IQJPPOOJQIAFPH-UHFFFAOYSA-N,,Cc1nc(C)n(C)c1-c1ccnc(Nc2ccc(S(=O)(=O)NC3CC3)cc2)n1,Cc1c(n(c(n1)C)C)c2ccnc(n2)Nc3ccc(cc3)S(=O)(=O)NC4CC4,CC=1N=C(N(C1C=2C=CN=C(N2)NC=3C=CC(=CC3)S(=O)(=O)NC4CC4)C)C,-5.3506651
IQKMXVOSQIIFLE-UHFFFAOYSA-N,,COc1cc2c(Nc3ccc(NC(=O)c4cccc(Cl)c4)nc3)ncnc2cc1OCCCCN1CCC(CCO)CC1,COc1cc2c(cc1OCCCCN3CCC(CC3)CCO)ncnc2Nc4ccc(nc4)NC(=O)c5cccc(c5)Cl,COC=1C=C2C(=NC=NC2=CC1OCCCCN3CCC(CC3)CCO)NC=4C=CC(=NC4)NC(=O)C=5C=CC=C(C5)Cl,-6.35164
IQMRMAPGRQYCKW-UHFFFAOYSA-N,"Propanamide, 2-hydroxy-N-octadecyl-",CCCCCCCCCCCCCCCCCCNC(=O)C(C)O,CCCCCCCCCCCCCCCCCCNC(=O)C(C)O,O=C(NCCCCCCCCCCCCCCCCCC)C(O)C,-4.056
IQNIDLLSCPAQAF-UHFFFAOYSA-N,,O=C1CC2CCc3cccnc3C2=NN1c1ccc(Cl)cc1,c1cc2c(nc1)C3=NN(C(=O)CC3CC2)c4ccc(cc4)Cl,O=C1N(N=C2C(C1)CCC3=C2N=CC=C3)C=4C=CC(=CC4)Cl,-3.9753232000000005
IQNKZUQUGOTVLG-UHFFFAOYSA-N,"Benzenesulfonamide, 2-cyano-N-phenyl-",N#Cc1ccccc1S(=O)(=O)Nc1ccccc1,c1ccc(cc1)NS(=O)(=O)c2ccccc2C#N,S(=O)(=O)(C=1C(=CC=CC1)C#N)NC2=CC=CC=C2,-2.935
IQPNAANSBPBGFQ-UHFFFAOYSA-N,"3',4',5,7-TETRAHYDROXYFLAVONE; LUTEOLIN",O=c1cc(-c2ccc(O)c(O)c2)oc2cc(O)cc(O)c12,c1cc(c(cc1c2cc(=O)c3c(cc(cc3o2)O)O)O)O,OC1=CC2=C(C(=C1)O)C(=O)C=C(O2)C3=CC(=C(C=C3)O)O,-3.61
IQQDNMHUOLMLNJ-UHFFFAOYSA-N,3-QUINOLINOL,Oc1cnc2ccccc2c1,c1ccc2c(c1)cc(cn2)O,OC=1C=NC=2C=CC=CC2C1,-2.39275
IQQJNSVUDJHRNU-UHFFFAOYSA-N,,COc1cc2ncnc(N/C(=N\CCC3CCCN3C)Nc3c(C)cccc3C)c2cc1OCC1CCOC1,Cc1cccc(c1N/C(=N/CCC2CCCN2C)/Nc3c4cc(c(cc4ncn3)OC)OCC5CCOC5)C,COC=1C=C2N=CN=C(C2=CC1OCC3CCOC3)N/C(=N\CCC4CCCN4C)/NC=5C(=CC=CC5C)C,-3.7447275
IQSFAMSAFMMKSL-UHFFFAOYSA-N,,Cc1ncc(-c2ccnc(Nc3ccc(S(N)(=O)=O)cc3)n2)[nH]1,Cc1[nH]c(cn1)c2ccnc(n2)Nc3ccc(cc3)S(=O)(=O)N,CC1=NC=C(N1)C=2C=CN=C(N2)NC=3C=CC(=CC3)S(=O)(=O)N,-4.3467875
IQSLZZVNNKJBMO-UHFFFAOYSA-N,,CCn1c2ccccc2c2cc(NC(=O)CC(=O)OC)ccc21,CCn1c2ccccc2c3c1ccc(c3)NC(=O)CC(=O)OC,CCN1C=2C=CC=CC2C3=C1C=CC(=C3)NC(=O)CC(=O)OC,-4.327902099999999
IQUHNCOJRJBMSU-UHFFFAOYSA-N,gadoteridol,CC(O)CN1CCN(CC(=O)O)CCN(CC(=O)O)CCN(CC(=O)O)CC1,CC(CN1CCN(CCN(CCN(CC1)CC(=O)O)CC(=O)O)CC(=O)O)O,CC(CN1CCN(CCN(CCN(CC1)CC(=O)O)CC(=O)O)CC(=O)O)O,0.12030436300000001
IQUPABOKLQSFBK-UHFFFAOYSA-N,o-Nitrophenol,O=[N+]([O-])c1ccccc1O,c1ccc(c(c1)[N+](=O)[O-])O,OC=1C=CC=CC1[N+](=O)[O-],-1.7452
IQVAERDLDAZARL-UHFFFAOYSA-N,Phenylpropionaldehyde [a-Methylphenylacetaldehyde],CC(C=O)c1ccccc1,CC(C=O)c1ccccc1,O=CC(C1=CC=CC=C1)C,-1.713
IQVNEKKDSLOHHK-UHFFFAOYSA-N,hydramethylnon (tautomer i),CC1(C)CNC(=NN=C(/C=C/c2ccc(C(F)(F)F)cc2)/C=C/c2ccc(C(F)(F)F)cc2)NC1,CC1(CNC(=NN=C(/C=C/c2ccc(cc2)C(F)(F)F)/C=C/c3ccc(cc3)C(F)(F)F)NC1)C,N1C(=NN=C(/C=C/C2=CC=C(C=C2)C(F)(F)F)/C=C/C3=CC=C(C=C3)C(F)(F)F)NCC(C1)(C)C,-7.916
IQXIDCDQCNFSPY-UHFFFAOYSA-N,"BENZENESULFONAMIDE, 3-FLUORO-4-[(2-HYDROXYETHYL)",NS(=O)(=O)c1ccc(SCCO)c(F)c1,c1cc(c(cc1S(=O)(=O)N)F)SCCO,S(=O)(=O)(C=1C=C(C(=CC1)SCCO)F)N,-1.6219999999999999
IQXUIDYRTHQTET-UHFFFAOYSA-N,4-Amino-3-nitrophenol,Nc1ccc(O)cc1[N+](=O)[O-],c1cc(c(cc1O)[N+](=O)[O-])N,NC=1C=CC(=CC1[N+](=O)[O-])O,-1.833882326
IQYASYFXGTXLOD-UHFFFAOYSA-N,,COc1cc2ncnc(Nc3ccc(S(=O)(=O)Nc4ccccn4)cc3)c2cc1OCCCN1CCOCC1,COc1cc2c(cc1OCCCN3CCOCC3)c(ncn2)Nc4ccc(cc4)S(=O)(=O)Nc5ccccn5,COC=1C=C2N=CN=C(C2=CC1OCCCN3CCOCC3)NC=4C=CC(=CC4)S(=O)(=O)NC=5C=CC=CN5,-4.1870866
IQZBVVPYTDHTIP-UHFFFAOYSA-N,,NC(=O)Nc1ccc(F)cc1,c1cc(ccc1NC(=O)N)F,NC(=O)NC1=CC=C(C=C1)F,-1.218
IRAKAHJFDQRYNL-UHFFFAOYSA-N,CHLORZOXAZONE-N-METHYL HEMISUCCINATE,O=C(O)CCC(=O)OCn1c(=O)oc2ccc(Cl)cc21,c1cc2c(cc1Cl)n(c(=O)o2)COC(=O)CCC(=O)O,OC(=O)CCC(=O)OCN1C(=O)OC=2C1=CC(=CC2)Cl,-3.41
IRCLTGRTLJWMCI-UHFFFAOYSA-N,,Brc1cnc(Nc2ccc(CCN3CCCC3)cc2)nc1Nc1ccccc1,c1ccc(cc1)Nc2c(cnc(n2)Nc3ccc(cc3)CCN4CCCC4)Br,BrC=1C=NC(=NC1NC=2C=CC=CC2)NC=3C=CC(=CC3)CCN4CCCC4,-3.2365720000000002
IRCMYGHHKLLGHV-UHFFFAOYSA-N,Ethofumesate,CCOC1Oc2ccc(OS(C)(=O)=O)cc2C1(C)C,CCOC1C(c2cc(ccc2O1)OS(=O)(=O)C)(C)C,S(=O)(=O)(OC=1C=C2C(=CC1)OC(C2(C)C)OCC)C,-3.42
IRECWLYBCAZIJM-UHFFFAOYSA-N,Flumiclorac-pentyl,CCCCCOC(=O)COc1cc(N2C(=O)C3=C(CCCC3)C2=O)c(F)cc1Cl,CCCCCOC(=O)COc1cc(c(cc1Cl)F)N2C(=O)C3=C(C2=O)CCCC3,N1(C(=O)C2=C(C1=O)CCCC2)C=3C=C(C(=CC3F)Cl)OCC(=O)OCCCCC,-6.3509
IRFNUHYCSBURFX-UHFFFAOYSA-N,,CC(=O)NCC1CN(c2cc(F)c(C3=CCS(=O)(=O)CC3)c(F)c2)C(=O)O1,CC(=O)NCC1CN(C(=O)O1)c2cc(c(c(c2)F)C3=CCS(=O)(=O)CC3)F,CC(=O)NCC1CN(C(=O)O1)C=2C=C(C(=C(C2)F)C3=CCS(=O)(=O)CC3)F,-3.1307682999999997
IRIAEXORFWYRCZ-UHFFFAOYSA-N,"O1-butyl O2-(phenylmethyl) benzene-1,2-dicarboxylate",CCCCOC(=O)c1ccccc1C(=O)OCc1ccccc1,CCCCOC(=O)c1ccccc1C(=O)OCc2ccccc2,O=C(OCCCC)C=1C(=CC=CC1)C(=O)OCC=2C=CC=CC2,-5.64
IRJQWZWMQCVOLA-UHFFFAOYSA-N,diflufenzopyr,C/C(=N\NC(=O)Nc1cc(F)cc(F)c1)c1ncccc1C(=O)O,C/C(=N\NC(=O)Nc1cc(cc(c1)F)F)/c2c(cccn2)C(=O)O,OC(=O)C1=CC=CN=C1/C(=N/NC(=O)NC2=CC(=CC(=C2)F)F)/C,-3.7249
IRLBIULJISAXBL-UHFFFAOYSA-N,,N#CCNC(=O)C(NC(=O)Cc1ccccc1)SCc1ccccc1,c1ccc(cc1)CC(=O)NC(C(=O)NCC#N)SCc2ccccc2,O=C(CC=1C=CC=CC1)NC(SCC=2C=CC=CC2)C(=O)NCC#N,-4.3098039
IRLIDUVSWZFKEN-UHFFFAOYSA-O,,CN(c1cc2c(O)n(-c3ccc(OC(F)(F)F)cc3)n[n+]2c2ccccc12)S(C)(=O)=O,CN(c1cc2c(n(n[n+]2c3c1cccc3)c4ccc(cc4)OC(F)(F)F)O)S(=O)(=O)C,CN(S(=O)(=O)C)C1=CC2=C(N(N=[N+]2C3=C1C=CC=C3)C=4C=CC(=CC4)OC(F)(F)F)O,-5.562111499999999
IRLZOQDGEAEIPX-UHFFFAOYSA-N,"2,6-Dichlorodiphenyl ether",Clc1cccc(Cl)c1Oc1ccccc1,c1ccc(cc1)Oc2c(cccc2Cl)Cl,O(C1=C(C=CC=C1Cl)Cl)C2=CC=CC=C2,-5.06
IRNQTAZCSDEURM-UHFFFAOYSA-N,,COc1cc(Nc2ncnc3cc(OCC4CCN(C)CC4)c(OC)cc23)c(F)cc1Cl,CN1CCC(CC1)COc2cc3c(cc2OC)c(ncn3)Nc4cc(c(cc4F)Cl)OC,COC=1C=C(C(=CC1Cl)F)NC=2N=CN=C3C2C=C(C(=C3)OCC4CCN(CC4)C)OC,-3.9586072999999997
IROINLKCQGIITA-UHFFFAOYSA-N,terbutryne,CCNc1nc(NC(C)(C)C)nc(SC)n1,CCNc1nc(nc(n1)SC)NC(C)(C)C,CCNC=1N=C(N=C(N1)SC)NC(C)(C)C,-4.0
IROLOADBIKTSBM-UHFFFAOYSA-N,,CNCc1c(O)c(C(=O)Nc2ccccc2Cl)cc2ccccc12,CNCc1c2ccccc2cc(c1O)C(=O)Nc3ccccc3Cl,CNCC=1C(=C(C=C2C1C=CC=C2)C(=O)NC=3C=CC=CC3Cl)O,-5.0371573
IRPOEZUEBAYTJL-UHFFFAOYSA-N,,COc1cc2ncnc(Nc3cc(Cl)ccc3F)c2cc1OCCCN1CCCCC1,COc1cc2c(cc1OCCCN3CCCCC3)c(ncn2)Nc4cc(ccc4F)Cl,COC=1C=C2N=CN=C(C2=CC1OCCCN3CCCCC3)NC=4C=C(C=CC4F)Cl,-3.4202163999999997
IRSCQMHQWWYFCW-UHFFFAOYSA-N,ganciclovir sodium,Nc1nc(O)c2ncn(COC(CO)CO)c2n1,c1nc2c(n1COC(CO)CO)nc(nc2O)N,NC1=NC2=C(N=CN2COC(CO)CO)C(=O)N1,-1.7730000000000001
IRSNBSGPKPZUDV-UHFFFAOYSA-N,3-chloroacridin-9-amine,Nc1c2ccccc2nc2cc(Cl)ccc12,c1ccc2c(c1)c(c3ccc(cc3n2)Cl)N,NC1=C2C=CC(=CC2=NC3=C1C=CC=C3)Cl,-1.7275
IRSVDHPYXFLLDS-UHFFFAOYSA-N,"2,4-Dichloro-1-(chloromethyl)benzene",ClCc1ccc(Cl)cc1Cl,c1cc(c(cc1Cl)Cl)CCl,ClCC=1C=CC(=CC1Cl)Cl,-3.512971097
IRTLURZRAZUXNA-UHFFFAOYSA-N,"Tricyclo[2.2.1.02,6]heptane-1-carboxylic acid, 7",CC1(C)C2CC3C(C2)C31C(=O)O,CC1(C2CC3C1(C3C2)C(=O)O)C,C12(C3C1CC(C3)C2(C)C)C(=O)O,-2.9419999999999997
IRTPENVLSMXDQC-UHFFFAOYSA-N,,COc1cc2c(Nc3ncc(CC(=O)Nc4cccc(Cl)c4)s3)ncnc2cc1OCCCNCC1CC1,COc1cc2c(cc1OCCCNCC3CC3)ncnc2Nc4ncc(s4)CC(=O)Nc5cccc(c5)Cl,COC=1C=C2C(=NC=NC2=CC1OCCCNCC3CC3)NC4=NC=C(S4)CC(=O)NC=5C=CC=C(C5)Cl,-4.5243288
IRTPQTHOFUCKKJ-UHFFFAOYSA-N,,CC(C)S(=O)(=O)c1csc(C(=O)N2CCN(c3ccccc3)CC2)c1,CC(C)S(=O)(=O)c1cc(sc1)C(=O)N2CCN(CC2)c3ccccc3,CC(C)S(=O)(=O)C1=CSC(=C1)C(=O)N2CCN(CC2)C=3C=CC=CC3,-3.3187587999999995
IRTQLVGUDJYPSF-UHFFFAOYSA-N,"Hexanamide, N-(aminocarbonyl)-2-ethyl-",CCCCC(CC)C(=O)NC(N)=O,CCCCC(CC)C(=O)NC(=O)N,N(C(=O)C(CC)CCCC)C(=O)N,-2.668
IRTZMJWVZQYURE-UHFFFAOYSA-N,Dioxypyramidon,CC(=O)N(C)N(C(=O)C(=O)N(C)C)c1ccccc1,CC(=O)N(C)N(c1ccccc1)C(=O)C(=O)N(C)C,CN(C)C(=O)C(=O)N(N(C)C(=O)C)C=1C=CC=CC1,-0.5345
IRUHWRSITUYICV-UHFFFAOYSA-N,"2H-1-Benzopyran-2-one, 6-hydroxy-4-methyl-",Cc1cc(=O)oc2ccc(O)cc12,Cc1cc(=O)oc2c1cc(cc2)O,C=1(C2=C(C=CC(=C2)O)OC(=O)C1)C,-2.371
IRUJZVNXZWPBMU-UHFFFAOYSA-N,Cartap Hydrochloride,CN(C)C(CSC(N)=O)CSC(N)=O,CN(C)C(CSC(=O)N)CSC(=O)N,CN(C)C(CSC(=O)N)CSC(=O)N,-0.105375
IRVDMKJLOCGUBJ-UHFFFAOYSA-N,THIONAZIN,CCOP(=S)(OCC)Oc1cnccn1,CCOP(=S)(OCC)Oc1cnccn1,P(=S)(OC1=NC=CN=C1)(OCC)OCC,-2.338
IRVIFOJFWFXUHM-UHFFFAOYSA-N,,COc1ccccc1Oc1ccc(Nc2c(C#N)cnc3cccc(OC4CCN(C)CC4)c23)cc1,CN1CCC(CC1)Oc2cccc3c2c(c(cn3)C#N)Nc4ccc(cc4)Oc5ccccc5OC,COC=1C=CC=CC1OC=2C=CC(=CC2)NC=3C(=CN=C4C3C(=CC=C4)OC5CCN(CC5)C)C#N,-4.412289
IRVWPZRYDQROLU-UHFFFAOYSA-N,"Benzo[a]heptalen-9(5H)-one, 7-amino-6,7-dihydro-",COc1cc2c(c(OC)c1OC)-c1ccc(O)c(=O)cc1C(N)CC2,COc1cc2c(c(c1OC)OC)-c3ccc(c(=O)cc3C(CC2)N)O,O=C1C=C2C(=CC=C1O)C3=C(C(=C(C=C3CCC2N)OC)OC)OC,-1.39
IRYJRGCIQBGHIV-UHFFFAOYSA-N,Trimethadione,CN1C(=O)OC(C)(C)C1=O,CC1(C(=O)N(C(=O)O1)C)C,N1(C(=O)OC(C1=O)(C)C)C,-0.4568
ISAOCJYIOMOJEB-UHFFFAOYSA-N,dl-benzoin,O=C(c1ccccc1)C(O)c1ccccc1,c1ccc(cc1)C(C(=O)c2ccccc2)O,OC(C=1C=CC=CC1)C(=O)C=2C=CC=CC2,-2.85
ISAVYTVYFVQUDY-UHFFFAOYSA-N,"4-(2,4,4-trimethylpentan-2-yl)phenol",CC(C)(C)CC(C)(C)c1ccc(O)cc1,CC(C)(C)CC(C)(C)c1ccc(cc1)O,CC(C)(C)CC(C)(C)C=1C=CC(=CC1)O,-4.469231117
ISBWNEKJSSLXOD-UHFFFAOYSA-N,Butyl 4-oxopentanoate,CCCCOC(=O)CCC(C)=O,CCCCOC(=O)CCC(=O)C,CCCCOC(=O)CCC(=O)C,-1.306837373
ISBXWVSYAWHMSU-UHFFFAOYSA-N,"2-Furancarboxylic acid, 3,4-dibromo-",O=C(O)c1occ(Br)c1Br,c1c(c(c(o1)C(=O)O)Br)Br,OC(=O)C=1OC=C(C1Br)Br,-2.08885
ISCYHXYLVTWDJT-UHFFFAOYSA-N,"1-N,1-N-bis(2-hydroxyethyl)benzene-1,4-bis(aminium) sulfate",Nc1ccc(N(CCO)CCO)cc1,c1cc(ccc1N)N(CCO)CCO,NC=1C=CC(=CC1)N(CCO)CCO,-0.218406527
ISDHKUXEPQGCGX-UHFFFAOYSA-N,"Benzenesulfonic acid, 2-amino-5-bromo-",Nc1ccc(Br)cc1S(=O)(=O)O,c1cc(c(cc1Br)S(=O)(=O)O)N,O=S(=O)(C1=CC(=CC=C1N)Br)O,-2.627
ISEUFVQQFVOBCY-UHFFFAOYSA-N,"prometon;  2,4-bis(isopropylamino)-6-methoxy-1,3,5-triazine",COc1nc(NC(C)C)nc(NC(C)C)n1,CC(C)Nc1nc(nc(n1)OC)NC(C)C,O(C)C=1N=C(N=C(N1)NC(C)C)NC(C)C,-2.478
ISGRRYXIEFPBFN-UHFFFAOYSA-N,"(6-hydroxy-2,3,3a,5,6,6a-hexahydrofuro[2,3-d]furan-3-yl) 2-(6-methoxynaphthalen-2-yl)propanoate",COc1ccc2cc(C(C)C(=O)OC3COC4C(O)COC34)ccc2c1,CC(c1ccc2cc(ccc2c1)OC)C(=O)OC3COC4C3OCC4O,COC1=CC2=C(C=C1)C=C(C=C2)C(C)C(=O)OC3COC4C3OCC4O,-3.978
ISHCVXKNSGUMPL-UHFFFAOYSA-N,4-(4-NITROPHENYLAZO)PHENOL,O=C1C=CC(=NNc2ccc([N+](=O)[O-])cc2)C=C1,c1cc(ccc1NN=C2C=CC(=O)C=C2)[N+](=O)[O-],O=[N+]([O-])C=1C=CC(=CC1)NN=C2C=CC(=O)C=C2,-4.796
ISHHQXJVDCIOFY-UHFFFAOYSA-N,,COCCNS(=O)(=O)c1ccc(Nc2ncc(C#N)c(NCC(F)(F)F)n2)cc1,COCCNS(=O)(=O)c1ccc(cc1)Nc2ncc(c(n2)NCC(F)(F)F)C#N,COCCNS(=O)(=O)C=1C=CC(=CC1)NC=2N=CC(=C(N2)NCC(F)(F)F)C#N,-6.0409586
ISIJLUXQMTWMLC-UHFFFAOYSA-N,"disodium 2-[(E)-2-[3-methyl-5-oxo-1-(4-sulfonatophenyl)-4,5-dihydro-1H-pyrazol-4-yl]diazen-1-yl]benzoate",CC1=NN(c2ccc(S(=O)(=O)O)cc2)C(=O)C1/N=N/c1ccccc1C(=O)O,CC1=NN(C(=O)C1/N=N/c2ccccc2C(=O)O)c3ccc(cc3)S(=O)(=O)O,CC1=NN(C(=O)C1/N=N/C=2C=CC=CC2C(=O)O)C=3C=CC(=CC3)S(=O)(=O)O,-1.4911574969999999
ISIRALASUBYCGQ-UHFFFAOYSA-N,,CN(C(=O)NCc1ccccc1)C1CCN(CCC(c2ccccc2)c2ccccc2)CC1,CN(C1CCN(CC1)CCC(c2ccccc2)c3ccccc3)C(=O)NCc4ccccc4,CN(C1CCN(CC1)CCC(C=2C=CC=CC2)C=3C=CC=CC3)C(=O)NCC=4C=CC=CC4,-4.5850267
ISJBYMLHVWHUKC-UHFFFAOYSA-N,,O=c1[nH]c2[nH]ncc2c(=O)n1-c1ccc(Cl)cc1,c1cc(ccc1n2c(=O)c3cn[nH]c3[nH]c2=O)Cl,ClC=1C=CC(=CC1)N2C(=O)NC=3NN=CC3C2=O,-3.4814861000000006
ISKQADXMHQSTHK-UHFFFAOYSA-N,[4-(aminomethyl)phenyl]methanamine,NCc1ccc(CN)cc1,c1cc(ccc1CN)CN,NCC=1C=CC(=CC1)CN,1.175035903
ISLGMFCNZJGDTA-UHFFFAOYSA-N,4-chloro-N-(4-chlorophenyl)sulfonylbenzenesulfonamide,O=S(=O)(NS(=O)(=O)c1ccc(Cl)cc1)c1ccc(Cl)cc1,c1cc(ccc1S(=O)(=O)NS(=O)(=O)c2ccc(cc2)Cl)Cl,O=S(=O)(NS(=O)(=O)C1=CC=C(C=C1)Cl)C2=CC=C(C=C2)Cl,-2.48
ISLYQRQYGGXHBQ-UHFFFAOYSA-N,"3-[(E)-2-(4-chloro-2-nitrophenyl)diazen-1-yl]-2-methyl-1H,9H-pyrazolo[3,2-b]quinazolin-9-one",CC1=Nn2c(nc3ccccc3c2=O)/C1=N\Nc1ccc(Cl)cc1[N+](=O)[O-],CC\1=Nn2c(=O)c3ccccc3nc2/C1=N\Nc4ccc(cc4[N+](=O)[O-])Cl,CC\1=NN2C(=O)C=3C=CC=CC3N=C2/C1=N/NC=4C=CC(=CC4[N+](=O)[O-])Cl,-7.582967244
ISMASPCUSQJIOZ-UHFFFAOYSA-N,,COCCOc1cc2nncc(Nc3ccc(Br)cc3F)c2cc1OC,COCCOc1cc2c(cc1OC)c(cnn2)Nc3ccc(cc3F)Br,COCCOC=1C=C2N=NC=C(C2=CC1OC)NC=3C=CC(=CC3F)Br,-7.0
ISMYLNZMKJLINI-UHFFFAOYSA-N,RTI 2,CCN1C(=O)c2cccnc2N(CC)c2ncccc21,CCN1c2cccnc2N(c3c(cccn3)C1=O)CC,O=C1N(C=2C(=NC=CC2)N(C3=C1C=CC=N3)CC)CC,-2.86
ISOORHISZYRNCF-UHFFFAOYSA-N,,CC(C)n1c2ccccc2c2cc(NC(=O)CCc3ccncc3)ccc21,CC(C)n1c2ccccc2c3c1ccc(c3)NC(=O)CCc4ccncc4,CC(C)N1C=2C=CC=CC2C3=C1C=CC(=C3)NC(=O)CCC=4C=CN=CC4,-5.1079054
ISOQHYHPBKMXGJ-UHFFFAOYSA-N,,COc1cc2ncnc(Nc3ccc(F)c(Cl)c3)c2cc1OC1CCNCC1,COc1cc2c(cc1OC3CCNCC3)c(ncn2)Nc4ccc(c(c4)Cl)F,COC=1C=C2N=CN=C(C2=CC1OC3CCNCC3)NC=4C=CC(=C(C4)Cl)F,-3.5376019999999997
ISRJTGUYHVPAOR-UHFFFAOYSA-N,Dihydrodicyclopentadienyl acrylate,C=CC(=O)OC1C=CC2C3CCC(C3)C12,C=CC(=O)OC1C=CC2C1C3CCC2C3,C=CC(=O)OC1C=CC2C1C3CCC2C3,-3.7080712360000003
ISRUGXGCCGIOQO-UHFFFAOYSA-N,propoxur;  2-isopropoxyphenyl   (n-methyl)carbamate,CNC(=O)Oc1ccccc1OC(C)C,CC(C)Oc1ccccc1OC(=O)NC,O=C(NC)OC1=CC=CC=C1OC(C)C,-2.05
ISSKLVIGGUADFL-UHFFFAOYSA-N,,CCNc1nc(Nc2ccc(S(=O)(=O)NCCCOCC)cc2)ncc1C#N,CCNc1c(cnc(n1)Nc2ccc(cc2)S(=O)(=O)NCCCOCC)C#N,CCNC=1N=C(N=CC1C#N)NC=2C=CC(=CC2)S(=O)(=O)NCCCOCC,-5.4202164
ISSLCMSTXXUOEU-UHFFFAOYSA-N,hydroxy-[5-[hydroxy(oxo)azaniumyl]oxyhexan-2-yloxy]-oxoazanium,CC(CCC(C)O[N+](=O)[O-])O[N+](=O)[O-],CC(CCC(C)O[N+](=O)[O-])O[N+](=O)[O-],CC(CCC(C)O[N+](=O)[O-])O[N+](=O)[O-],-2.68
ISVQSVPUDBVFFU-UHFFFAOYSA-N,"fenazaflor; lavozal; tarzol; 5,6-dichloro-1-phenoxycarbonyl-2-trifluoromethylbenzimidazole",O=C(Oc1ccccc1)n1c(C(F)(F)F)nc2cc(Cl)c(Cl)cc21,c1ccc(cc1)OC(=O)n2c3cc(c(cc3nc2C(F)(F)F)Cl)Cl,N1(C(=NC2=C1C=C(C(=C2)Cl)Cl)C(F)(F)F)C(=O)OC=3C=CC=CC3,-4.46