inchikey,Name,SMILES_stand,SMILES,kekSmiles,logS
ISYUCRJMSVHTHM-UHFFFAOYSA-N,,CCn1c2ccncc2c2cc(NC(=O)CCc3ccncc3)ccc21,CCn1c2ccc(cc2c3c1ccnc3)NC(=O)CCc4ccncc4,CCN1C=2C=CN=CC2C3=C1C=CC(=C3)NC(=O)CCC=4C=CN=CC4,-3.5376019999999997
ISYWECDDZWTKFF-UHFFFAOYSA-N,Nonadecanoic acid,CCCCCCCCCCCCCCCCCCC(=O)O,CCCCCCCCCCCCCCCCCCC(=O)O,CCCCCCCCCCCCCCCCCCC(=O)O,-3.775995168
ISZFBACLJPLZOO-UHFFFAOYSA-N,,COc1cc2ncnc(NC(=O)Nc3c(Cl)cccc3Cl)c2cc1OCCCN1CCCCC1,COc1cc2c(cc1OCCCN3CCCCC3)c(ncn2)NC(=O)Nc4c(cccc4Cl)Cl,COC=1C=C2N=CN=C(C2=CC1OCCCN3CCCCC3)NC(=O)NC=4C(=CC=CC4Cl)Cl,-3.853872
ITCFCQIQMZJUBH-UHFFFAOYSA-N,,CCC(Sc1ccccc1Cl)C(=O)NCCCc1ccccc1,CCC(C(=O)NCCCc1ccccc1)Sc2ccccc2Cl,CCC(SC=1C=CC=CC1Cl)C(=O)NCCCC=2C=CC=CC2,-5.30103
ITEPVCCCDYGBNI-UHFFFAOYSA-N,,CC(C)NCC(O)COc1ccc(Nc2ncc(Br)c(Nc3ccc(F)c(F)c3)n2)cc1,CC(C)NCC(COc1ccc(cc1)Nc2ncc(c(n2)Nc3ccc(c(c3)F)F)Br)O,CC(C)NCC(O)COC=1C=CC(=CC1)NC=2N=CC(=C(N2)NC=3C=CC(=C(C3)F)F)Br,-4.0655015
ITEQSCBLCCNACE-UHFFFAOYSA-N,"dimetan;  5,5-dimethyl-3-oxo-1-hexenyl  (n,n-dimethyl)carbamate",CN(C)C(=O)OC1=CC(=O)CC(C)(C)C1,CC1(CC(=CC(=O)C1)OC(=O)N(C)C)C,O=C(OC1=CC(=O)CC(C1)(C)C)N(C)C,-0.85
ITGVCPVJMNLMJK-UHFFFAOYSA-N,,CCn1c(C)c(C)c2cc(NC(=O)N(C)CCc3ccncc3)ccc21,CCn1c(c(c2c1ccc(c2)NC(=O)N(C)CCc3ccncc3)C)C,CCN1C(=C(C2=C1C=CC(=C2)NC(=O)N(C)CCC=3C=CN=CC3)C)C,-4.214903700000001
ITJIINAVMOBHSF-UHFFFAOYSA-N,"Fatty acids, C5-9, hexaesters with dipentaerythritol",CCCCC(=O)OCC(CO)(CO)COCC(CO)(CO)CO,CCCCC(=O)OCC(CO)(CO)COCC(CO)(CO)CO,CCCCC(=O)OCC(CO)(CO)COCC(CO)(CO)CO,-6.83022825
ITJNARMNRKSWTA-UHFFFAOYSA-N,,CNCCC(Oc1ccccc1OC)c1ccccc1,CNCCC(c1ccccc1)Oc2ccccc2OC,O(C(CCNC)C1=CC=CC=C1)C=2C(=CC=CC2)OC,0.353
ITJPTURSPJESQC-UHFFFAOYSA-N,DIETHYL PENTYL PHOSPHATE,CCCCCOP(=O)(OCC)OCC,CCCCCOP(=O)(OCC)OCC,P(=O)(OCC)(OCC)OCCCCC,-1.47585
ITKAIUGKVKDENI-UHFFFAOYSA-N,PYRIMIDIFEN,CCOCCc1ccc(OCCNc2ncnc(CC)c2Cl)c(C)c1C,CCc1c(c(ncn1)NCCOc2ccc(c(c2C)C)CCOCC)Cl,ClC1=C(N=CN=C1NCCOC2=CC=C(C(=C2C)C)CCOCC)CC,-5.2409
ITKYXPSZKACZJS-UHFFFAOYSA-N,"2,2',4,4'-Tetrachlorobenzyl 3-toluene",Cc1c(Cl)ccc(Cc2ccc(Cl)cc2Cl)c1Cl,Cc1c(ccc(c1Cl)Cc2ccc(cc2Cl)Cl)Cl,CC1=C(C(=CC=C1Cl)CC2=CC=C(C=C2Cl)Cl)Cl,-7.4
ITLABUFHNNHWSO-UHFFFAOYSA-N,,CC(C)NCC(O)COc1ccc(Nc2ncc(Br)c(Nc3ccc(F)cc3)n2)cc1,CC(C)NCC(COc1ccc(cc1)Nc2ncc(c(n2)Nc3ccc(cc3)F)Br)O,CC(C)NCC(O)COC=1C=CC(=CC1)NC=2N=CC(=C(N2)NC=3C=CC(=CC3)F)Br,-4.1307683
ITLVVURPHAGVGV-UHFFFAOYSA-N,,COc1cc2c(Nc3ccc(Cl)cc3F)ncnc2cc1OCCCNc1ccnc(C)n1,Cc1nccc(n1)NCCCOc2cc3c(cc2OC)c(ncn3)Nc4ccc(cc4F)Cl,COC=1C=C2C(=NC=NC2=CC1OCCCNC=3C=CN=C(N3)C)NC=4C=CC(=CC4F)Cl,-5.2757241
ITMRQGQCULJEJR-UHFFFAOYSA-N,"Phthalic acid, 3-nitro-, 2-isobutyl ester",CC(C)(C)OC(=O)c1cccc([N+](=O)[O-])c1C(=O)O,CC(C)(C)OC(=O)c1cccc(c1C(=O)O)[N+](=O)[O-],CC(C)(C)OC(=O)C=1C=CC=C(C1C(=O)O)[N+](=O)[O-],-3.04685
ITMSGQSFXHYWNM-UHFFFAOYSA-N,,Cc1cc(Nc2nc(NCc3cc(C)no3)ncc2Br)[nH]n1,Cc1cc(on1)CNc2ncc(c(n2)Nc3cc(n[nH]3)C)Br,CC=1C=C(NN1)NC=2N=C(N=CC2Br)NCC3=CC(=NO3)C,-4.2076082999999995
ITNMAZSPBLRJLU-UHFFFAOYSA-N,"2,6-Dichloro-4-(trifluoromethyl)aniline",Nc1c(Cl)cc(C(F)(F)F)cc1Cl,c1c(cc(c(c1Cl)N)Cl)C(F)(F)F,NC=1C(=CC(=CC1Cl)C(F)(F)F)Cl,-3.5918213760000004
ITRJWOMZKQRYTA-UHFFFAOYSA-N,hydrocortisone_acetate,CC(=O)OCC(=O)[C@@]1(O)CC[C@H]2[C@@H]3CCC4=CC(=O)CC[C@]4(C)[C@H]3C(=O)C[C@@]21C,CC(=O)OCC(=O)[C@]1(CC[C@@H]2[C@@]1(CC(=O)[C@H]3[C@H]2CCC4=CC(=O)CC[C@]34C)C)O,OC1(CCC2C1(CC(=O)C3C2CCC4=CC(=O)CCC34C)C)C(=O)COC(=O)C,-4.303
ITSHANXHITZMSB-UHFFFAOYSA-N,,COc1cc2c(Nc3ncc(CC(=O)Nc4cc(F)cc(F)c4)s3)ncnc2cc1OCCCN1CCCC(O)C1,COc1cc2c(cc1OCCCN3CCCC(C3)O)ncnc2Nc4ncc(s4)CC(=O)Nc5cc(cc(c5)F)F,COC=1C=C2C(=NC=NC2=CC1OCCCN3CCCC(C3)O)NC4=NC=C(S4)CC(=O)NC=5C=C(C=C(C5)F)F,-5.79588
ITTJRGPCQAAFGL-UHFFFAOYSA-N,"1,4-xylene 4-(methoxycarbonyl)benzoic acid 4-methylbenzoic acid benzoic acid 1,2,4-trimethyl benzene-1,2,4-tricarboxylate 1,2-dimethyl 4-methylbenzene-1,2-dicarboxylate 1,2-dimethyl benzene-1,2-dicarboxylate 1,3-dimethyl benzene-1,3-dicarboxylate 1,4-dimethyl 2-[4-(methoxycarbonyl)phenyl]benzene-1,4-dicarboxylate 1,4-dimethyl benzene-1,4-dicarboxylate 1-[4-(methoxycarbonyl)phenyl]methyl 4-methyl benzene-1,4-dicarboxylate 1-methyl 4-(4-methylphenyl)methyl benzene-1,4-dicarboxylate 2,6-dimethyl 9-oxo-9H-fluorene-2,6-dicarboxylate [4-(methoxycarbonyl)phenyl]methyl 4-methylbenzoate methyl 1-methyl-6-oxo-6H-benzo[c]chromene-4-carboxylate methyl 2-[4-(methoxycarbonyl)phenyl]-4-methylbenzoate methyl 2-[4-(methoxycarbonyl)phenyl]benzoate methyl 3-[4-(methoxycarbonyl)phenyl]benzoate methyl 4-(dimethoxymethyl)benzoate methyl 4-(hydroxymethyl)benzoate methyl 4-[4-(methoxycarbonyl)phenyl]benzoate methyl 4-formylbenzoate methyl 4-methylbenzoate methyl benzoate",COC(=O)c1ccc(COC(=O)c2ccc(C(=O)OC)cc2)cc1,COC(=O)c1ccc(cc1)COC(=O)c2ccc(cc2)C(=O)OC,COC(=O)C=1C=CC(=CC1)COC(=O)C=2C=CC(=CC2)C(=O)OC,-6.731838887
ITVGXXMINPYUHD-UHFFFAOYSA-N,Neohesperidin dihydrochalone,COc1ccc(CCC(=O)c2c(O)cc(O[C@@H]3O[C@H](CO)[C@@H](O)[C@H](O)[C@H]3O[C@@H]3O[C@@H](C)[C@H](O)[C@@H](O)[C@H]3O)cc2O)cc1O,C[C@H]1[C@@H]([C@H]([C@H]([C@@H](O1)O[C@@H]2[C@H]([C@@H]([C@H](O[C@H]2Oc3cc(c(c(c3)O)C(=O)CCc4ccc(c(c4)O)OC)O)CO)O)O)O)O)O,COC=1C=CC(=CC1O)CCC(=O)C=2C(=CC(=CC2O)O[C@@H]3O[C@@H]([C@H]([C@@H]([C@H]3O[C@@H]4O[C@H]([C@@H]([C@H]([C@H]4O)O)O)C)O)O)CO)O,-3.1850517660000004
ITVQAKZNYJEWKS-UHFFFAOYSA-N,profluralin;  tolban,CCCN(CC1CC1)c1c([N+](=O)[O-])cc(C(F)(F)F)cc1[N+](=O)[O-],CCCN(CC1CC1)c2c(cc(cc2[N+](=O)[O-])C(F)(F)F)[N+](=O)[O-],CCCN(CC1CC1)C=2C(=CC(=CC2[N+](=O)[O-])C(F)(F)F)[N+](=O)[O-],-6.54085
ITXDBGLYYSJNPK-UHFFFAOYSA-N,"2,4,5,6-Tetrachloroanisole",COc1c(Cl)cc(Cl)c(Cl)c1Cl,COc1c(cc(c(c1Cl)Cl)Cl)Cl,COC1=C(C(=C(C=C1Cl)Cl)Cl)Cl,-5.13
ITYOWDZUCQCMRC-UHFFFAOYSA-N,,COc1cc(CC(=O)NCCCc2ccc(CC(=O)O)cc2)cc2oc(Nc3ccccc3)nc12,COc1cc(cc2c1nc(o2)Nc3ccccc3)CC(=O)NCCCc4ccc(cc4)CC(=O)O,COC=1C=C(C=C2C1N=C(O2)NC=3C=CC=CC3)CC(=O)NCCCC=4C=CC(=CC4)CC(=O)O,-2.7447275
ITZTUWFKNKUILE-UHFFFAOYSA-N,,CNC(=O)CNC(=O)COc1ccccc1Oc1ccc(Nc2c(C#N)cnc3cc(OC)c(OC)cc23)cc1,CNC(=O)CNC(=O)COc1ccccc1Oc2ccc(cc2)Nc3c4cc(c(cc4ncc3C#N)OC)OC,CNC(=O)CNC(=O)COC=1C=CC=CC1OC=2C=CC(=CC2)NC=3C(=CN=C4C3C=C(C(=C4)OC)OC)C#N,-6.0
IUAFDSVNWMBNPY-UHFFFAOYSA-N,,CN1CCN(CC(=O)Nc2ccc3ncnc(Nc4ccc(Oc5ccccc5)c(Cl)c4)c3c2)CC1,CN1CCN(CC1)CC(=O)Nc2ccc3c(c2)c(ncn3)Nc4ccc(c(c4)Cl)Oc5ccccc5,CN1CCN(CC1)CC(=O)NC=2C=CC=3N=CN=C(C3C2)NC=4C=CC(=C(C4)Cl)OC=5C=CC=CC5,-6.619788799999999
IUBNKPCRXUESHD-UHFFFAOYSA-N,,NC(=O)c1cc(-c2ccccc2)sc1NC(=O)CNCCN1CCOCC1,c1ccc(cc1)c2cc(c(s2)NC(=O)CNCCN3CCOCC3)C(=O)N,NC(=O)C=1C=C(SC1NC(=O)CNCCN2CCOCC2)C=3C=CC=CC3,-3.4436975
IUBSYMUCCVWXPE-UHFFFAOYSA-N,metoprolol tartrate,COCCc1ccc(OCC(O)CNC(C)C)cc1,CC(C)NCC(COc1ccc(cc1)CCOC)O,COCCC=1C=CC(=CC1)OCC(O)CNC(C)C,-1.1992
IUCJMVBFZDHPDX-UHFFFAOYSA-N,"2,4,6-TRIS(1-AZIRIDINYL)-1,3,5-TRIAZINE",C1CN1c1nc(N2CC2)nc(N2CC2)n1,C1CN1c2nc(nc(n2)N3CC3)N4CC4,C1(=NC(=NC(=N1)N2CC2)N3CC3)N4CC4,0.292
IUCYCHQMRZWPGT-UHFFFAOYSA-N,"Phenol, 4-(2-aminoethyl)-2-nitro-",NCCc1ccc(O)c([N+](=O)[O-])c1,c1cc(c(cc1CCN)[N+](=O)[O-])O,[N+](=O)(C1=C(C=CC(=C1)CCN)O)[O-],-1.33995
IUDGNRWYNOEIKF-UHFFFAOYSA-N,"Undecanoic acid, 11-bromo-",O=C(O)CCCCCCCCCCBr,C(CCCCCBr)CCCCC(=O)O,OC(=O)CCCCCCCCCCBr,-3.699
IUEYDCOTUADWCW-UHFFFAOYSA-N,,CNC(=O)C(C)(C)Oc1ccccc1Oc1ccc(Nc2c(C#N)cnc3cc(NC)c(OC)cc23)cc1,CC(C)(C(=O)NC)Oc1ccccc1Oc2ccc(cc2)Nc3c4cc(c(cc4ncc3C#N)NC)OC,CNC(=O)C(C)(C)OC=1C=CC=CC1OC=2C=CC(=CC2)NC=3C(=CN=C4C3C=C(C(=C4)NC)OC)C#N,-6.3767507000000005
IUILSTHMSGDSHQ-UHFFFAOYSA-N,"13h-dibenzo[a,i]carbazole",c1ccc2c(c1)ccc1c3ccc4ccccc4c3[nH]c21,c1ccc2c(c1)ccc3c2[nH]c4c3ccc5c4cccc5,N1C2=C(C=CC3=C2C=CC=C3)C4=C1C5=C(C=CC=C5)C=C4,-7.415
IUJDSEJGGMCXSG-UHFFFAOYSA-N,thiopental;  5-ethyl-5-(2-pentyl)-2-thiobarbituric  acid,CCCC(C)C1(CC)C(=O)NC(=S)NC1=O,CCCC(C)C1(C(=O)NC(=S)NC1=O)CC,S=C1NC(=O)C(C(=O)N1)(C(C)CCC)CC,-3.36
IUJLOAKJZQBENM-UHFFFAOYSA-N,"(1,3-benzothiazol-2-ylsulfanyl)(tert-butyl)amine",CC(C)(C)NSc1nc2ccccc2s1,CC(C)(C)NSc1nc2ccccc2s1,CC(C)(C)NSC=1SC=2C=CC=CC2N1,-5.1370000000000005
IUJMAIXKNQJCRQ-UHFFFAOYSA-N,Ethyl 2-formamido (2-chlorophenyl) acrylate,CCOC(=O)/C(=C/c1ccccc1Cl)NC=O,CCOC(=O)/C(=C/c1ccccc1Cl)/NC=O,O=CN/C(=C\C1=CC=CC=C1Cl)/C(=O)OCC,-2.9989999999999997
IULFBTHVPRNQCG-UHFFFAOYSA-N,"2,5-Piperazinedione, 3-(1-methylethyl)-",CC(C)C1NC(=O)CNC1=O,CC(C)C1C(=O)NCC(=O)N1,N1C(C(=O)NCC1=O)C(C)C,-0.8926
IUMRYNUBZSCOQG-UHFFFAOYSA-N,RTI 19,CCN1c2ccccc2C(=O)N(C)c2ccccc21,CCN1c2ccccc2C(=O)N(c3c1cccc3)C,CCN1C=2C=CC=CC2N(C(=O)C3=C1C=CC=C3)C,-4.749
IUOKJNROJISWRO-UHFFFAOYSA-N,,CC(Oc1ccc(Cl)cc1Cl)C(=O)NC(C)(C#N)C(C)C,CC(C)C(C)(C#N)NC(=O)C(C)Oc1ccc(cc1Cl)Cl,ClC1=CC(=CC=C1OC(C(=O)NC(C#N)(C)C(C)C)C)Cl,-1.03
IUQAXCIUEPFPSF-UHFFFAOYSA-N,,CS(=O)(=O)c1ccc(C(=O)C2C(=O)CCCC2=O)c(Cl)c1COCC(F)(F)F,CS(=O)(=O)c1ccc(c(c1COCC(F)(F)F)Cl)C(=O)C2C(=O)CCCC2=O,CS(=O)(=O)C1=C(C(=C(C=C1)C(=O)C2C(=O)CCCC2=O)Cl)COCC(F)(F)F,-1.192
IUQFLFCVFREGMO-UHFFFAOYSA-N,,O=C(NCc1cn2ccccc2n1)c1ccc(Nc2ncc(Br)c(Nc3ccccc3)n2)cc1,c1ccc(cc1)Nc2c(cnc(n2)Nc3ccc(cc3)C(=O)NCc4cn5ccccc5n4)Br,BrC=1C=NC(=NC1NC=2C=CC=CC2)NC=3C=CC(=CC3)C(=O)NCC4=CN5C=CC=CC5=N4,-6.6777807000000005
IUSYSZLVZMUVDO-UHFFFAOYSA-N,,O=C(O)c1cc(Oc2ccc(Cl)cc2Cl)ccc1[N+](=O)[O-],c1cc(c(cc1Oc2ccc(cc2Cl)Cl)C(=O)O)[N+](=O)[O-],ClC1=CC(=CC=C1OC2=CC(=C(C=C2)[N+](=O)[O-])C(=O)O)Cl,-2.516
IUWVALYLNVXWKX-UHFFFAOYSA-N,Butyl 4-aminobenzoate,CCCCOC(=O)c1ccc(N)cc1,CCCCOC(=O)c1ccc(cc1)N,O=C(OCCCC)C1=CC=C(C=C1)N,-2.99
IUYHQGMDSZOPDZ-UHFFFAOYSA-N,"2,3,4-trichlorobiphenyl",Clc1ccc(-c2ccccc2)c(Cl)c1Cl,c1ccc(cc1)c2ccc(c(c2Cl)Cl)Cl,ClC=1C=CC(=C(C1Cl)Cl)C=2C=CC=CC2,-6.18
IUZMBBCCRGRLDI-UHFFFAOYSA-N,"6-chloro-~{N}'-hydroxy-1,3-dihydrobenzo[de]isoquinoline-2-carboximidamide",N/C(=N\O)N1Cc2cccc3c(Cl)ccc(c23)C1,c1cc2c3c(ccc(c3c1)Cl)CN(C2)/C(=N/O)/N,N/C(=N\O)/N1CC2=CC=CC=3C2=C(C=CC3Cl)C1,-1.9995
IVBHGBMCVLDMKU-UHFFFAOYSA-N,piperacillin,CCN1CCN(C(=O)N[C@@H](C(=O)N[C@@H]2C(=O)N3[C@@H](C(=O)O)C(C)(C)S[C@H]23)c2ccccc2)C(=O)C1=O,CCN1CCN(C(=O)C1=O)C(=O)N[C@H](c2ccccc2)C(=O)N[C@H]3[C@@H]4N(C3=O)[C@H](C(S4)(C)C)C(=O)O,CCN1CCN(C(=O)C1=O)C(=O)N[C@H](C2=CC=CC=C2)C(=O)N[C@H]3[C@@H]4N(C3=O)[C@H](C(S4)(C)C)C(=O)O,0.139919946
IVDMCFNZRMBUFA-UHFFFAOYSA-N,,Cc1ccc(NC(=O)c2cccc(-c3ccco3)c2)cc1-n1cnc2ccc(N3CCN(C)CC3)cc2c1=O,Cc1ccc(cc1n2cnc3ccc(cc3c2=O)N4CCN(CC4)C)NC(=O)c5cccc(c5)c6ccco6,CN1CCN(CC1)C=2C=CC=3N=CN(C(=O)C3C2)C=4C=C(C=CC4C)NC(=O)C=5C=CC=C(C5)C6=CC=CO6,-5.4814861
IVEISCBJBALLQL-UHFFFAOYSA-N,,CC(CC(=O)O)(C(=O)Oc1cccc(NC(=O)Cc2ccc3nc(Nc4ccccc4)oc3c2)c1)c1ccccc1,CC(CC(=O)O)(c1ccccc1)C(=O)Oc2cccc(c2)NC(=O)Cc3ccc4c(c3)oc(n4)Nc5ccccc5,CC(CC(=O)O)(C(=O)OC=1C=CC=C(C1)NC(=O)CC=2C=CC=3N=C(OC3C2)NC=4C=CC=CC4)C=5C=CC=CC5,-5.09691
IVENSCMCQBJAKW-UHFFFAOYSA-N,DESISOPROPYLATRAZINE,CCNc1nc(N)nc(Cl)n1,CCNc1nc(nc(n1)Cl)N,N=1C(=NC(=NC1N)Cl)NCC,-2.41325
IVEVYZAZHQVESM-UHFFFAOYSA-N,methyl 2-[3-(acetyloxy)-2-pentylcyclopent-2-en-1-yl]acetate,CCCCCC1=C(OC(C)=O)CCC1CC(=O)OC,CCCCCC1=C(CCC1CC(=O)OC)OC(=O)C,CCCCCC1=C(CCC1CC(=O)OC)OC(=O)C,-3.7219943360000003
IVFUDKGJHWBKQV-UHFFFAOYSA-N,,CN1CCN(CC(O)COc2ccc(Nc3cc(Nc4ccc(F)cc4F)ncn3)cc2)CC1,CN1CCN(CC1)CC(COc2ccc(cc2)Nc3cc(ncn3)Nc4ccc(cc4F)F)O,CN1CCN(CC1)CC(O)COC=2C=CC(=CC2)NC=3C=C(N=CN3)NC=4C=CC(=CC4F)F,-3.6382722000000003
IVGSXMISHUDQKI-UHFFFAOYSA-N,,COCCS(=O)(=O)N(C)CCOc1cc2ncnc(Nc3ccc(Cl)cc3F)c2cc1OC,CN(CCOc1cc2c(cc1OC)c(ncn2)Nc3ccc(cc3F)Cl)S(=O)(=O)CCOC,COCCS(=O)(=O)N(C)CCOC=1C=C2N=CN=C(C2=CC1OC)NC=3C=CC(=CC3F)Cl,-4.2218487
IVOIAUFQMXIKHL-UHFFFAOYSA-N,"1H-Purin-2-amine, 6-(trifluoromethyl)-",NC1=NC2=NC=NC2C(C(F)(F)F)=N1,C1=NC2C(=NC(=NC2=N1)N)C(F)(F)F,FC(C1=NC(=NC2=NC=NC12)N)(F)F,-3.135
IVOMIARHPSCYQU-UHFFFAOYSA-N,,N#Cc1ccc(C(=O)NCCOc2ccccc2F)cc1,c1ccc(c(c1)OCCNC(=O)c2ccc(cc2)C#N)F,FC=1C=CC=CC1OCCNC(=O)C=2C=CC(=CC2)C#N,-3.8041002999999995
IVPCTSRAVCFXHD-UHFFFAOYSA-N,,Cc1ccc(CC(=O)N2CCN(c3ncnc4sccc34)CC2)cc1,Cc1ccc(cc1)CC(=O)N2CCN(CC2)c3c4ccsc4ncn3,CC=1C=CC(=CC1)CC(=O)N2CCN(CC2)C=3N=CN=C4C3C=CS4,-4.4814861
IVQRHXLVJCENKY-UHFFFAOYSA-N,,O=C(O)CC(COc1cccc(NC(=O)Cc2ccc3nc(Nc4ccccc4)oc3c2)c1)n1cccn1,c1ccc(cc1)Nc2nc3ccc(cc3o2)CC(=O)Nc4cccc(c4)OCC(CC(=O)O)n5cccn5,OC(=O)CC(COC=1C=CC=C(C1)NC(=O)CC=2C=CC=3N=C(OC3C2)NC=4C=CC=CC4)N5C=CC=N5,-3.0
IVSFOQKCIBTUJX-UHFFFAOYSA-N,,O=C1NC(c2ccccc2)COCc2cn(nn2)CCC1Cc1ccc(Cl)cc1,c1ccc(cc1)C2COCc3cn(nn3)CCC(C(=O)N2)Cc4ccc(cc4)Cl,ClC1=CC=C(C=C1)CC2CCN3C=C(N=N3)COCC(NC2=O)C4=CC=CC=C4,-4.55
IVTVGDXNLFLDRM-UHFFFAOYSA-N,,Cc1nc(=O)c2cc(CN(C)c3ccc(C(=O)NC(CCC(=O)O)C(=O)O)s3)ccc2[nH]1,Cc1[nH]c2ccc(cc2c(=O)n1)CN(C)c3ccc(s3)C(=O)NC(CCC(=O)O)C(=O)O,S1C(=CC=C1C(=O)NC(CCC(=O)O)C(=O)O)N(CC2=CC3=C(NC(=NC3=O)C)C=C2)C,0.8427
IVUXTESCPZUGJC-UHFFFAOYSA-N,"chloroxuron;  3-(4-(4-chlorophenoxy)phenyl)-1,1-dimethylurea",CN(C)C(=O)Nc1ccc(Oc2ccc(Cl)cc2)cc1,CN(C)C(=O)Nc1ccc(cc1)Oc2ccc(cc2)Cl,O=C(N(C)C)NC1=CC=C(C=C1)OC2=CC=C(C=C2)Cl,-4.89
IVVLFHBYPHTMJU-UHFFFAOYSA-N,"2,2,4,4-Tetramethyl-7-oxa-3,20-diazadispiro(5.1.11.2)heneicosan-21-one",CC1(C)CC2(CC(C)(C)N1)OC1(CCCCCCCCCCC1)NC2=O,CC1(CC2(CC(N1)(C)C)C(=O)NC3(O2)CCCCCCCCCCC3)C,CC1(CC2(CC(N1)(C)C)OC3(CCCCCCCCCCC3)NC2=O)C,-5.08483222
IVVNZDGDKPTYHK-UHFFFAOYSA-N,pinacidil,CC(/N=C(\NC#N)Nc1ccncc1)C(C)(C)C,CC(C(C)(C)C)/N=C(\NC#N)/Nc1ccncc1,CC(C(C)(C)C)/N=C(\NC#N)/NC1=CC=NC=C1,-3.79313586
IVVRJIDVYSPKFZ-UHFFFAOYSA-N,"2,8-Dichlorodibenzofuran",Clc1ccc2oc3ccc(Cl)cc3c2c1,c1cc2c(cc1Cl)c3cc(ccc3o2)Cl,O1C2=CC=C(C=C2C=3C1=CC=C(C3)Cl)Cl,-7.21
IVYLNCUETJNNJU-UHFFFAOYSA-N,"(2R)-5-amino-2-(dibenzylamino)-1,6-diphenylhex-4-en-3-one",N/C(=C\C(=O)[C@@H](Cc1ccccc1)N(Cc1ccccc1)Cc1ccccc1)Cc1ccccc1,c1ccc(cc1)C[C@H](C(=O)/C=C(/Cc2ccccc2)\N)N(Cc3ccccc3)Cc4ccccc4,N/C(=C\C(=O)[C@@H](CC=1C=CC=CC1)N(CC=2C=CC=CC2)CC=3C=CC=CC3)/CC=4C=CC=CC4,-7.663171867000001
IVZQXYAFDLEJMV-UHFFFAOYSA-N,,CNc1ncc(Br)c(Nc2cc(C)n[nH]2)n1,Cc1cc([nH]n1)Nc2c(cnc(n2)NC)Br,CNC=1N=CC(=C(N1)NC2=CC(=NN2)C)Br,-3.4814861000000006
IWDDXZKCDHOOSF-UHFFFAOYSA-N,alloxantin;  uroxin,O=C1NC(=O)C(O)(C2(O)C(=O)NC(=O)NC2=O)C(=O)N1,C1(=O)C(C(=O)NC(=O)N1)(C2(C(=O)NC(=O)NC2=O)O)O,OC1(C(=O)NC(=O)NC1=O)C2(C(=O)NC(=O)NC2=O)O,-1.99
IWEDIXLBFLAXBO-UHFFFAOYSA-N,"dicamba;  2-methoxy-3,6-dichlorobenzoic acid",COc1c(Cl)ccc(Cl)c1C(=O)O,COc1c(ccc(c1C(=O)O)Cl)Cl,O=C(O)C1=C(C(=CC=C1Cl)Cl)OC,-1.7
IWFIXMMBXWYLPM-UHFFFAOYSA-N,,COc1cc2c(Oc3ccc4[nH]c(C)cc4c3)ncnc2cc1OCCOCCN1CCN(C)CC1,Cc1cc2cc(ccc2[nH]1)Oc3c4cc(c(cc4ncn3)OCCOCCN5CCN(CC5)C)OC,COC=1C=C2C(=NC=NC2=CC1OCCOCCN3CCN(CC3)C)OC=4C=CC=5NC(=CC5C4)C,-2.6575773
IWFSHKKFDSWNLZ-UHFFFAOYSA-N,,CC1CN(C(=O)C(C)(O)C(F)(F)F)C(C)CN1C(=O)c1ccc(C#N)cc1,CC1CN(C(CN1C(=O)C(C)(C(F)(F)F)O)C)C(=O)c2ccc(cc2)C#N,CC1CN(C(CN1C(=O)C=2C=CC(=CC2)C#N)C)C(=O)C(C)(O)C(F)(F)F,-2.60206
IWGNNIJEIAULQO-UHFFFAOYSA-N,,CCCCNc1nc(Nc2ccc(S(=O)(=O)NCCCOC)cc2)ncc1C#N,CCCCNc1c(cnc(n1)Nc2ccc(cc2)S(=O)(=O)NCCCOC)C#N,CCCCNC=1N=C(N=CC1C#N)NC=2C=CC(=CC2)S(=O)(=O)NCCCOC,-6.366531500000001
IWHOHYOMWRLKGY-UHFFFAOYSA-N,"Cyclohexanecarboxylic acid, 1-hydroxy-2-methyl-",CC1CCCCC1(O)C(=O)O,CC1CCCCC1(C(=O)O)O,C1(C(CCCC1)C)(C(=O)O)O,-0.8982
IWICSVIWAXRRJZ-UHFFFAOYSA-N,,Cc1nc(COc2cc(OCc3ccccc3C)cc(C(=O)Nc3ccc(C(=O)O)cn3)c2)cs1,Cc1ccccc1COc2cc(cc(c2)OCc3csc(n3)C)C(=O)Nc4ccc(cn4)C(=O)O,CC1=NC(=CS1)COC=2C=C(C=C(C2)C(=O)NC=3C=CC(=CN3)C(=O)O)OCC=4C=CC=CC4C,-4.468521099999999
IWKWOYOVCXHXSS-UHFFFAOYSA-N,"2-butyl-1,3-diazaspiro[4.4]non-1-en-4-one 2-butyl-1,3-diazaspiro[4.4]non-2-en-4-one dihydrochloride",CCCCC1=NC2(CCCC2)C(=O)N1,CCCCC1=NC2(CCCC2)C(=O)N1,CCCCC1=NC2(CCCC2)C(=O)N1,-1.019806972
IWOBFAYKJCVNNN-UHFFFAOYSA-N,,CCCCOCCOc1ccc(Nc2ncnc3cc(OC)c(OC)cc23)cc1Cl,CCCCOCCOc1ccc(cc1Cl)Nc2c3cc(c(cc3ncn2)OC)OC,CCCCOCCOC=1C=CC(=CC1Cl)NC=2N=CN=C3C2C=C(C(=C3)OC)OC,-5.79588
IWRVPXDHSLTIOC-UHFFFAOYSA-N,C.I. Basic Orange 2,Nc1ccc(/N=N/c2ccccc2)c(N)c1,c1ccc(cc1)/N=N/c2ccc(cc2N)N,NC=1C=CC(=C(C1)N)/N=N/C=2C=CC=CC2,-4.0947
IWSZDQRGNFLMJS-UHFFFAOYSA-N,2-Dibutylaminoethanol,CCCCN(CCO)CCCC,CCCCN(CCCC)CCO,OCCN(CCCC)CCCC,-1.636738571
IWTFDHOAOPEINT-UHFFFAOYSA-N,"5-fluoro-1-[(4-methoxyphenyl)methyl]pyrimidine-2,4-dione",COc1ccc(Cn2cc(F)c(=O)[nH]c2=O)cc1,COc1ccc(cc1)Cn2cc(c(=O)[nH]c2=O)F,N1(C(=O)NC(=O)C(=C1)F)CC2=CC=C(C=C2)OC,-2.7505
IWUCXJILMHBQKZ-UHFFFAOYSA-N,,O=C(O)CCCOc1cccc(NC(=O)CCCc2csc(Nc3ccccc3)n2)c1,c1ccc(cc1)Nc2nc(cs2)CCCC(=O)Nc3cccc(c3)OCCCC(=O)O,OC(=O)CCCOC=1C=CC=C(C1)NC(=O)CCCC2=CSC(=N2)NC=3C=CC=CC3,-4.60206
IWUCXVSUMQZMFG-UHFFFAOYSA-N,Ribavirin,NC(=O)c1ncn([C@@H]2O[C@H](CO)[C@@H](O)[C@H]2O)n1,c1nc(nn1[C@H]2[C@@H]([C@@H]([C@H](O2)CO)O)O)C(=O)N,NC(=O)C=1N=CN(N1)[C@@H]2O[C@@H]([C@H]([C@H]2O)O)CO,-0.2355
IWVCMVBTMGNXQD-UHFFFAOYSA-N,OXYTETRACYLCINE,CN(C)C1C(O)=C(C(N)=O)C(=O)C2(O)C(O)=C3C(=O)c4c(O)cccc4C(C)(O)C3C(O)C12,CC1(c2cccc(c2C(=O)C3=C(C4(C(C(C31)O)C(C(=C(C4=O)C(=O)N)O)N(C)C)O)O)O)O,OC12C(C(C(=C(C1=O)C(=O)N)O)N(C)C)C(C3C(=C2O)C(=O)C4=C(C=CC=C4O)C3(C)O)O,-3.145
IWYDHOAUDWTVEP-UHFFFAOYSA-N,Hydroxy(phenyl)acetic acid,O=C(O)[C@H](O)c1ccccc1,c1ccc(cc1)[C@H](C(=O)O)O,O[C@H](C(=O)O)C=1C=CC=CC1,0.050732
IWYDNHDPJXFEOV-UHFFFAOYSA-N,"Urea, 1-methyl-1-o-tolyl-",Cc1ccccc1N(C)C(N)=O,Cc1ccccc1N(C)C(=O)N,CN(C(=O)N)C=1C=CC=CC1C,-0.4032
IWZFZCBZXQRFPE-UHFFFAOYSA-N,,CCCCN(CCCC)CCNCCOc1cc2ncnc(Nc3ccc(NC(=O)c4ccccc4)cc3)c2cc1OC,CCCCN(CCCC)CCNCCOc1cc2c(cc1OC)c(ncn2)Nc3ccc(cc3)NC(=O)c4ccccc4,CCCCN(CCCC)CCNCCOC=1C=C2N=CN=C(C2=CC1OC)NC=3C=CC(=CC3)NC(=O)C=4C=CC=CC4,-4.379849
IXAUFLAHUXISCH-UHFFFAOYSA-N,3-Phenoxypropiononitrile,N#CCCOc1ccccc1,c1ccc(cc1)OCCC#N,C(OC1=CC=CC=C1)CC#N,-1.915
IXAVTTRPEXFVSX-UHFFFAOYSA-N,"2,4-DIMETHYLOCTANE",CCCCC(C)CC(C)C,CCCCC(C)CC(C)C,CCCCC(C)CC(C)C,-6.103
IXAWTPMDMPUGLV-UHFFFAOYSA-N,2-[4-(2-hydroxyethoxy)but-2-ynoxy]ethanol,OCCOCC#CCOCCO,C(COCC#CCOCCO)O,OCCOCC#CCOCCO,0.758980911
IXDJANRWLQKZKC-UHFFFAOYSA-N,,COc1ccc(Br)c(Nc2ncnc3cc(OC)cc(OC4CCN(C)CC4)c23)c1,CN1CCC(CC1)Oc2cc(cc3c2c(ncn3)Nc4cc(ccc4Br)OC)OC,COC=1C=CC(=C(C1)NC=2N=CN=C3C2C(=CC(=C3)OC)OC4CCN(CC4)C)Br,-4.091515
IXGIHEROBWMYRC-UHFFFAOYSA-O,,Nc1nc2ccccc2[n+]2nn(-c3ccc(C(F)(F)F)cc3)c(O)c12,c1ccc2c(c1)nc(c3[n+]2nn(c3O)c4ccc(cc4)C(F)(F)F)N,NC1=NC=2C=CC=CC2[N+]=3C1=C(N(N3)C=4C=CC(=CC4)C(F)(F)F)O,-6.0941316
IXGTWEXWADFYFR-UHFFFAOYSA-N,,CN1CCN(CCCOc2ccc(Nc3ncc(Br)c(Nc4ccccc4)n3)cc2)CC1,CN1CCN(CC1)CCCOc2ccc(cc2)Nc3ncc(c(n3)Nc4ccccc4)Br,CN1CCN(CC1)CCCOC=2C=CC(=CC2)NC=3N=CC(=C(N3)NC=4C=CC=CC4)Br,-4.1249387
IXHMHWIBCIYOAZ-UHFFFAOYSA-N,"styphnic  acid; 1,3-dihydroxy-2,4,6-trinitrobenzene",O=[N+]([O-])c1cc([N+](=O)[O-])c(O)c([N+](=O)[O-])c1O,c1c(c(c(c(c1[N+](=O)[O-])O)[N+](=O)[O-])O)[N+](=O)[O-],OC=1C(=CC(=C(C1[N+](=O)[O-])O)[N+](=O)[O-])[N+](=O)[O-],-2.8080000000000003
IXJOSTZEBSTPAG-UHFFFAOYSA-N,Methasulfocarb,CNC(=O)Sc1ccc(OS(C)(=O)=O)cc1,CNC(=O)Sc1ccc(cc1)OS(=O)(=O)C,S(=O)(=O)(OC=1C=CC(=CC1)SC(=O)NC)C,-2.73595
IXKMEWLSNCAKJO-UHFFFAOYSA-N,,CCNc1nc(C)cc(OCCCCO)n1,CCNc1nc(cc(n1)OCCCCO)C,CCNC=1N=C(C=C(N1)OCCCCO)C,-2.455932
IXKORJAFEDWTEU-UHFFFAOYSA-N,,COc1ccc(OC)c(Nc2c(C#N)cnc3cc(OC)c(C(=O)NCCNC(=O)c4ccco4)cc23)c1,COc1ccc(c(c1)Nc2c3cc(c(cc3ncc2C#N)OC)C(=O)NCCNC(=O)c4ccco4)OC,COC=1C=CC(=C(C1)NC=2C(=CN=C3C2C=C(C(=C3)OC)C(=O)NCCNC(=O)C4=CC=CO4)C#N)OC,-5.79588
IXKVXPGDWDXXQM-UHFFFAOYSA-N,DIS. A. 2,Cc1cc(N(CCO)CCO)ccc1/N=N/c1ccccc1,Cc1cc(ccc1/N=N/c2ccccc2)N(CCO)CCO,OCCN(C1=CC=C(C(=C1)C)/N=N/C2=CC=CC=C2)CCO,-4.1254
IXOGWBZUTOHTBT-UHFFFAOYSA-N,,CS(=O)(=O)n1c2ccccc2c2cc(NC(=O)CCc3ccncc3)ccc21,CS(=O)(=O)n1c2ccccc2c3c1ccc(c3)NC(=O)CCc4ccncc4,CS(=O)(=O)N1C=2C=CC=CC2C3=C1C=CC(=C3)NC(=O)CCC=4C=CN=CC4,-4.6382722
IXOPRFBLJTZXBZ-UHFFFAOYSA-N,"Phthalic acid, 3,4-dimethoxy-, 2-ethyl ester",CCOC(=O)c1c(C(=O)O)ccc(OC)c1OC,CCOC(=O)c1c(ccc(c1OC)OC)C(=O)O,C=1(C(=CC=C(C1OC)OC)C(=O)O)C(=O)OCC,-2.253
IXORZMNAPKEEDV-UHFFFAOYSA-N,gibberellic_acid,C=C1C[C@]23C[C@@]1(O)CC[C@H]2[C@@]12C=C[C@H](O)C(C)(C(=O)O1)[C@H]2[C@@H]3C(=O)O,CC12[C@H](C=C[C@@]3([C@@H]1[C@@H]([C@]45[C@H]3CC[C@](C4)(C(=C)C5)O)C(=O)O)OC2=O)O,O=C1OC23C=CC(C1(C2C(C45C3CCC(C4)(C(=C)C5)O)C(=O)O)C)O,-1.8406
IXOXBSCIXZEQEQ-UHFFFAOYSA-N,nelarabine,COc1nc(N)nc2c1ncn2[C@@H]1O[C@H](CO)[C@@H](O)[C@@H]1O,COc1c2c(nc(n1)N)n(cn2)[C@H]3[C@H]([C@@H]([C@H](O3)CO)O)O,COC1=NC(=NC2=C1N=CN2[C@H]3[C@H]([C@@H]([C@H](O3)CO)O)O)N,-2.000394634
IXRKDGGGFFCRIR-UHFFFAOYSA-N,,COc1ccc2nc(O)c3c(c2c1)OC(C)(C)C=C3,CC1(C=Cc2c(c3cc(ccc3nc2O)OC)O1)C,COC=1C=CC=2N=C(C3=C(C2C1)OC(C=C3)(C)C)O,-4.055517299999999
IXRSCWSJPFKHLV-UHFFFAOYSA-N,5'-Pentanoyl-Idoxuridine; 5'-Pentanoyl-5-Iodo-2'-deoxyuridine; 5'-Pentanoyl-IdU,CCCCC(=O)OCC1OC(n2cc(I)c(=O)[nH]c2=O)CC1O,CCCCC(=O)OCC1C(CC(O1)n2cc(c(=O)[nH]c2=O)I)O,CCCCC(=O)OCC1OC(CC1O)N2C=C(C(=O)NC2=O)I,-3.4