inchikey,Name,SMILES_stand,SMILES,kekSmiles,logS
GBDZXPJXOMHESU-UHFFFAOYSA-N,"1,2,3,4-Tetrachlorobenzene",Clc1ccc(Cl)c(Cl)c1Cl,c1cc(c(c(c1Cl)Cl)Cl)Cl,ClC=1C=CC(=C(C1Cl)Cl)Cl,-4.57
GBFFSHZRGVVSDW-UHFFFAOYSA-N,"17-hydroxy-17-(3-hydroxyprop-1-yn-1-yl)-10,13-dimethyl-1,2,6,7,8,9,10,11,12,13,14,15,16,17-tetradecahydro-3H-cyclopenta[a]phenanthren-3-one (non-preferred name)",C[C@]12CC[C@H]3[C@@H](CCC4=CC(=O)CC[C@@]43C)[C@@H]1CCC2(O)C#CCO,C[C@]12CCC(=O)C=C1CC[C@@H]3[C@@H]2CC[C@]4([C@H]3CCC4(C#CCO)O)C,C[C@]12CCC(=O)C=C1CC[C@@H]3[C@@H]2CC[C@]4([C@H]3CCC4(O)C#CCO)C,-3.526016888
GBGDCAANGUECIA-UHFFFAOYSA-N,,N=C(N)c1ccc2[nH]c(Cc3cccc(Cl)c3)cc2c1,c1cc(cc(c1)Cl)Cc2cc3cc(ccc3[nH]2)C(=N)N,NC(=N)C=1C=CC=2NC(=CC2C1)CC=3C=CC=C(C3)Cl,-2.5686362000000003
GBGJTSANLSBRIC-UHFFFAOYSA-N,,CCC(CC(CS(=O)(=O)N1CCN(c2ccc(F)cc2)CC1)N(O)C=O)c1ccccc1,CCC(CC(CS(=O)(=O)N1CCN(CC1)c2ccc(cc2)F)N(C=O)O)c3ccccc3,CCC(CC(CS(=O)(=O)N1CCN(CC1)C=2C=CC(=CC2)F)N(O)C=O)C=3C=CC=CC3,-4.2441251
GBGLQCQVLLDMIH-UHFFFAOYSA-N,,COc1cc2ncnc(NC(=O)Nc3c(F)cccc3F)c2cc1OCCCN1CCCCC1,COc1cc2c(cc1OCCCN3CCCCC3)c(ncn2)NC(=O)Nc4c(cccc4F)F,COC=1C=C2N=CN=C(C2=CC1OCCCN3CCCCC3)NC(=O)NC=4C(=CC=CC4F)F,-3.7695510999999997
GBGXVCNOKWAMIP-UHFFFAOYSA-N,Molecule1481,OC(Cc1ccccc1)c1ccccc1,c1ccc(cc1)CC(c2ccccc2)O,OC(CC1=CC=CC=C1)C2=CC=CC=C2,-2.52
GBHSHRQIUHNDNW-UHFFFAOYSA-N,,O=C(O)CCn1cccc(NC(=O)Cc2ccc3nc(Nc4ccccc4)oc3c2)c1=O,c1ccc(cc1)Nc2nc3ccc(cc3o2)CC(=O)Nc4cccn(c4=O)CCC(=O)O,OC(=O)CCN1C=CC=C(C1=O)NC(=O)CC=2C=CC=3N=C(OC3C2)NC=4C=CC=CC4,-3.6575773000000003
GBICWXGBEJOIIL-UHFFFAOYSA-N,,O=C(c1cc2ccccc2[nH]1)N1CCN(c2ncccc2C(F)(F)F)CC1,c1ccc2c(c1)cc([nH]2)C(=O)N3CCN(CC3)c4c(cccn4)C(F)(F)F,FC(F)(F)C=1C=CC=NC1N2CCN(CC2)C(=O)C3=CC=4C=CC=CC4N3,-6.455932
GBIHOLCMZGAKNG-UHFFFAOYSA-N,Molecule593,CC(C)C(C(=O)OC(C#N)c1cccc(Oc2ccccc2)c1)c1ccc(OC(F)F)cc1,CC(C)C(c1ccc(cc1)OC(F)F)C(=O)OC(C#N)c2cccc(c2)Oc3ccccc3,FC(OC1=CC=C(C=C1)C(C(C)C)C(=O)OC(C2=CC=CC(=C2)OC3=CC=CC=C3)C#N)F,-6.876
GBJFSZCDZHSAOP-UHFFFAOYSA-N,Lg-Tartaric acid monomethyl ester,COC(=O)C(O)C(O)C(=O)O,COC(=O)C(C(C(=O)O)O)O,C(C(C(=O)OC)O)(C(=O)O)O,0.1828
GBKZRUCVLTWAML-UHFFFAOYSA-N,,Nc1cc(Cl)c(Cl)c(Cl)c1Cl,c1c(c(c(c(c1Cl)Cl)Cl)Cl)N,C1=C(C(=C(C(=C1Cl)Cl)Cl)Cl)N,-4.534
GBNFPCVLMYXNBD-UHFFFAOYSA-N,"D-Cysteine, L-leucyl-, (2.fwdarw.2')-disulfide",CC(C)(C)C(N)C(=O)NC(CSSCC(NC(=O)C(N)C(C)(C)C)C(=O)O)C(=O)O,CC(C)(C)C(C(=O)NC(CSSCC(C(=O)O)NC(=O)C(C(C)(C)C)N)C(=O)O)N,C(=O)(NC(C(=O)O)CSSCC(NC(=O)C(C(C)(C)C)N)C(=O)O)C(C(C)(C)C)N,-0.5136
GBNHEBQXJVDXSW-UHFFFAOYSA-N,,Oc1cc(Cl)c(Cl)c(Cl)c1,c1c(cc(c(c1Cl)Cl)Cl)O,OC1=CC(=C(C(=C1)Cl)Cl)Cl,-3.486
GBNRGPOXYKKLGO-UHFFFAOYSA-N,"Hydrazinecarboxamide, 1-(2-hydroxypropyl)-2-[(5-",CC(O)CN(/N=C/c1ccc([N+](=O)[O-])o1)C(N)=O,CC(CN(C(=O)N)/N=C/c1ccc(o1)[N+](=O)[O-])O,OC(CN(/N=C/C=1OC(=CC1)[N+](=O)[O-])C(=O)N)C,-2.63
GBNUZNXQXMOYOO-UHFFFAOYSA-N,,Cc1ccc(C(COc2cccc(NC(=O)Cc3ccc4nc(Nc5ccccc5)oc4c3)c2)CC(=O)O)cc1,Cc1ccc(cc1)C(CC(=O)O)COc2cccc(c2)NC(=O)Cc3ccc4c(c3)oc(n4)Nc5ccccc5,CC=1C=CC(=CC1)C(COC=2C=CC=C(C2)NC(=O)CC=3C=CC=4N=C(OC4C3)NC=5C=CC=CC5)CC(=O)O,-4.2757241
GBODHMKXBYAEJW-UHFFFAOYSA-N,chlorpropamide,CNCCCN1C2CCCCC2CCC2CCCCC21,CNCCCN1C2CCCCC2CCC3C1CCCC3,N1(C2CCCCC2CCC3C1CCCC3)CCCNC,-3.248
GBOYJIHYACSLGN-UHFFFAOYSA-N,,O=C(NCc1ncc(C(F)(F)F)cc1Cl)c1c(Cl)cccc1Cl,c1cc(c(c(c1)Cl)C(=O)NCc2c(cc(cn2)C(F)(F)F)Cl)Cl,ClC1=CC=CC(=C1C(=O)NCC2=NC=C(C=C2Cl)C(F)(F)F)Cl,-5.1370000000000005
GBROPGWFBFCKAG-UHFFFAOYSA-N,Picene,c1ccc2c(c1)ccc1c2ccc2c3ccccc3ccc21,c1ccc2c(c1)ccc3c2ccc4c3ccc5c4cccc5,C=1C=CC=2C(C1)=CC=C3C2C=CC4=C3C=CC5=C4C=CC=C5,-7.869994
GBUPUZKXAHZXHY-UHFFFAOYSA-N,,COc1cc2c(Nc3ccc(Oc4ccccc4OC)cc3)c(C#N)cnc2cc1OCCCNC(C)C,CC(C)NCCCOc1cc2c(cc1OC)c(c(cn2)C#N)Nc3ccc(cc3)Oc4ccccc4OC,COC=1C=CC=CC1OC=2C=CC(=CC2)NC=3C(=CN=C4C3C=C(C(=C4)OCCCNC(C)C)OC)C#N,-4.086186100000001
GBUUVABTXRUQPZ-UHFFFAOYSA-N,,COc1cc2c(Nc3ncc(CC(=O)Nc4cc(F)cc(F)c4)s3)ncnc2cc1OCC(O)CN1CCCCC1,COc1cc2c(cc1OCC(CN3CCCCC3)O)ncnc2Nc4ncc(s4)CC(=O)Nc5cc(cc(c5)F)F,COC=1C=C2C(=NC=NC2=CC1OCC(O)CN3CCCCC3)NC4=NC=C(S4)CC(=O)NC=5C=C(C=C(C5)F)F,-5.3187587999999995
GBXSMTUPTTWBMN-UHFFFAOYSA-N,enalapril,CCOC(=O)[C@H](CCc1ccccc1)N[C@@H](C)C(=O)N1CCC[C@H]1C(=O)O,CCOC(=O)[C@H](CCc1ccccc1)N[C@@H](C)C(=O)N2CCC[C@H]2C(=O)O,O=C(O)C1CCCN1C(=O)C(C)NC(CCC2=CC=CC=C2)C(=O)OCC,-1.3608634530000001
GBZKICBSIONZCF-UHFFFAOYSA-N,"3,5-Dimethyl-4-thia-hepta-2,5-diendioic acid",C/C(=C\C(=O)O)S/C(C)=C/C(=O)O,C/C(=C\C(=O)O)/S/C(=C/C(=O)O)/C,O=C(O)/C=C(\C)/S/C(=C/C(=O)O)/C,-2.306
GCABIYVOJWRUBO-UHFFFAOYSA-N,,COc1cc2c(Oc3ccc4[nH]c(C)cc4c3F)ncnc2cc1OCC(O)CN1CCCC1,Cc1cc2c([nH]1)ccc(c2F)Oc3c4cc(c(cc4ncn3)OCC(CN5CCCC5)O)OC,COC=1C=C2C(=NC=NC2=CC1OCC(O)CN3CCCC3)OC=4C=CC=5NC(=CC5C4F)C,-4.1038125
GCAHOAMXTYBLNZ-UHFFFAOYSA-N,Molecule1401,CC(CCC(=O)O)C1CCC2C3CC(O)C4CC(O)CCC4(C)C3CC(O)C12C,CC(CCC(=O)O)C1CCC2C1(C(CC3C2CC(C4C3(CCC(C4)O)C)O)O)C,OC1CC2C(C3C1(C(CC3)C(C)CCC(=O)O)C)CC(C4C2(CCC(C4)O)C)O,-4.35
GCDBEYOJCZLKMC-UHFFFAOYSA-N,2-HYDROXYANTHRAQUINONE,O=C1c2ccccc2C(=O)c2cc(O)ccc21,c1ccc2c(c1)C(=O)c3ccc(cc3C2=O)O,OC=1C=CC2=C(C1)C(=O)C3=C(C=CC=C3)C2=O,-5.30915
GCDCKEORRIGZKI-UHFFFAOYSA-N,4-(SEC-BUTYL)-2-NITROPHENOL,CCC(C)c1ccc(O)c([N+](=O)[O-])c1,CCC(C)c1ccc(c(c1)[N+](=O)[O-])O,[N+](=O)(C1=CC(=CC=C1O)C(CC)C)[O-],-3.84
GCFBRXLSHGKWDP-UHFFFAOYSA-N,cefoperazone sodium,CCN1CCN(C(=O)N[C@@H](C(=O)N[C@@H]2C(=O)N3C(C(=O)O)=C(CSc4nnnn4C)CS[C@H]23)c2ccc(O)cc2)C(=O)C1=O,CCN1CCN(C(=O)C1=O)C(=O)N[C@H](c2ccc(cc2)O)C(=O)N[C@H]3[C@@H]4N(C3=O)C(=C(CS4)CSc5nnnn5C)C(=O)O,N12C(C(C1=O)NC(=O)C(C3=CC=C(C=C3)O)NC(=O)N4C(=O)C(=O)N(CC4)CC)SCC(=C2C(=O)O)CSC=5N(N=NN5)C,-2.563789425
GCKFUYQCUCGESZ-UHFFFAOYSA-N,etonogestrel,C#C[C@]1(O)CC[C@H]2[C@@H]3CCC4=CC(=O)CC[C@@H]4[C@H]3C(=C)C[C@@]21CC,CC[C@]12CC(=C)[C@H]3[C@H]([C@@H]1CC[C@]2(C#C)O)CCC4=CC(=O)CC[C@H]34,CC[C@]12CC(=C)[C@H]3[C@H]([C@@H]1CC[C@]2(C#C)O)CCC4=CC(=O)CC[C@H]34,-2.8035909880000003
GCKMFJBGXUYNAG-UHFFFAOYSA-N,methyltestosterone,C[C@]1(O)CC[C@H]2[C@@H]3CCC4=CC(=O)CC[C@]4(C)[C@H]3CC[C@@]21C,C[C@]12CCC(=O)C=C1CC[C@@H]3[C@@H]2CC[C@]4([C@H]3CC[C@]4(C)O)C,O=C1CCC2(C(=C1)CCC3C2CCC4(C3CCC4(C)O)C)C,-3.97
GCKVMUFICOIMOY-UHFFFAOYSA-N,,CSCCC(NC(=O)c1ccc(/C=C/Cn2ccnc2)nc1-c1ccc(F)cc1)C(=O)OC(C)(C)C,CC(C)(C)OC(=O)C(CCSC)NC(=O)c1ccc(nc1c2ccc(cc2)F)/C=C/Cn3ccnc3,CSCCC(NC(=O)C=1C=CC(=NC1C=2C=CC(=CC2)F)/C=C/CN3C=CN=C3)C(=O)OC(C)(C)C,-3.9788107000000004
GCQNBFAQILMNNO-UHFFFAOYSA-N,,COc1ccc(Nc2nc(Nc3ccc(C(=O)NCCCN4CCN(C)CC4)cc3)ncc2Br)cc1,CN1CCN(CC1)CCCNC(=O)c2ccc(cc2)Nc3ncc(c(n3)Nc4ccc(cc4)OC)Br,COC=1C=CC(=CC1)NC=2N=C(N=CC2Br)NC=3C=CC(=CC3)C(=O)NCCCN4CCN(CC4)C,-4.2757241
GCQNYKASGVLUOP-UHFFFAOYSA-N,,COc1cc2c(Nc3ccc(NC(=O)c4ccccc4)cc3)ncnc2cc1OCC(O)CNC1CC1,COc1cc2c(cc1OCC(CNC3CC3)O)ncnc2Nc4ccc(cc4)NC(=O)c5ccccc5,COC=1C=C2C(=NC=NC2=CC1OCC(O)CNC3CC3)NC=4C=CC(=CC4)NC(=O)C=5C=CC=CC5,-3.8860566
GCQZFVAHUZIDRP-UHFFFAOYSA-N,N1-(4-SO2NH2-PH)SULFANILAMIDE,Nc1ccc(S(=O)(=O)Nc2ccc(S(N)(=O)=O)cc2)cc1,c1cc(ccc1N)S(=O)(=O)Nc2ccc(cc2)S(=O)(=O)N,S(=O)(=O)(NC=1C=CC(=CC1)S(=O)(=O)N)C=2C=CC(=CC2)N,-2.7591
GCSARSTYDHDJGS-UHFFFAOYSA-N,,O=C(Nc1ccc2sc3ccccc3c2c1)C1CC1,c1ccc2c(c1)c3cc(ccc3s2)NC(=O)C4CC4,O=C(NC=1C=CC=2SC=3C=CC=CC3C2C1)C4CC4,-6.552842
GCSHUYKULREZSJ-UHFFFAOYSA-N,2-Benzoylpyridine,O=C(c1ccccc1)c1ccccn1,c1ccc(cc1)C(=O)c2ccccn2,O=C(C1=CC=CC=C1)C2=NC=CC=C2,-2.02
GCVKCYPQHVZQTK-UHFFFAOYSA-N,,CN(CCCNS(=O)(=O)c1ccc(Nc2nccc(-c3cnc4ccccn34)n2)cc1)C(=O)OC(C)(C)C,CC(C)(C)OC(=O)N(C)CCCNS(=O)(=O)c1ccc(cc1)Nc2nccc(n2)c3cnc4n3cccc4,CN(CCCNS(=O)(=O)C=1C=CC(=CC1)NC=2N=CC=C(N2)C3=CN=C4N3C=CC=C4)C(=O)OC(C)(C)C,-6.6777807000000005
GDDXYMXEPMQRHT-UHFFFAOYSA-N,,CCCCNCc1ccc(C(=O)c2ccc(S(N)(=O)=O)s2)cc1,CCCCNCc1ccc(cc1)C(=O)c2ccc(s2)S(=O)(=O)N,C1=C(C=CC(=C1)C(=O)C2=CC=C(S2)S(=O)(=O)N)CNCCCC,-2.167
GDEPSOALCMGGTL-UHFFFAOYSA-N,5-hexoxy-2-[(~{E})-~{N}-hydroxy-~{C}-phenylcarbonimidoyl]phenol,CCCCCCOc1ccc(/C(=N/O)c2ccccc2)c(O)c1,CCCCCCOc1ccc(c(c1)O)/C(=N/O)/c2ccccc2,CCCCCCOC1=CC(=C(C=C1)/C(=N/O)/C2=CC=CC=C2)O,-3.47
GDGDLBOVIAWEAD-UHFFFAOYSA-N,"2,4-ditert-butyl-6-(3,5-ditert-butyl-2-hydroxyphenyl)phenol",CC(C)(C)c1cc(-c2cc(C(C)(C)C)cc(C(C)(C)C)c2O)c(O)c(C(C)(C)C)c1,CC(C)(C)c1cc(c(c(c1)C(C)(C)C)O)c2cc(cc(c2O)C(C)(C)C)C(C)(C)C,CC(C)(C)C=1C=C(C(=C(C1)C(C)(C)C)O)C=2C=C(C=C(C2O)C(C)(C)C)C(C)(C)C,-6.889187497000001
GDILJONVBZVAFH-UHFFFAOYSA-N,N-OXIDENICOTINIC ACID,O=C([O-])C1=C[NH+2]([O-])CC=C1,[CH-]1C=CC(=C[NH+2]1[O-])C(=O)O,OC(=O)C1=C[NH+2]([CH-]C=C1)[O-],-1.29815
GDIONXWSZRJUGV-UHFFFAOYSA-N,,O=C(O)c1ccc(NC(=O)c2cc(OCc3ccccc3)cc(OCc3ccccc3)c2)nc1,c1ccc(cc1)COc2cc(cc(c2)OCc3ccccc3)C(=O)Nc4ccc(cn4)C(=O)O,OC(=O)C=1C=CC(=NC1)NC(=O)C=2C=C(C=C(C2)OCC=3C=CC=CC3)OCC=4C=CC=CC4,-5.4436975
GDLBFKVLRPITMI-UHFFFAOYSA-N,diazoxide,CC1=Nc2ccc(Cl)cc2S(=O)(=O)N1,CC1=Nc2ccc(cc2S(=O)(=O)N1)Cl,ClC=1C=C2C(=CC1)NC(=NS2(=O)=O)C,-3.361
GDLUURVRLLHAQO-UHFFFAOYSA-N,"N,N'-Bis(2-methylphenyl)-2-oxomalonamide",Cc1ccccc1NC(=O)C(=O)C(=O)Nc1ccccc1C,Cc1ccccc1NC(=O)C(=O)C(=O)Nc2ccccc2C,CC1=C(C=CC=C1)NC(=O)C(=O)C(=O)NC2=C(C=CC=C2)C,-2.198
GDMGWQHLRLGZFB-UHFFFAOYSA-N,Propranolol,CC(C)NC(O)/C=C/Oc1cccc2ccccc12,CC(C)NC(/C=C/Oc1cccc2c1cccc2)O,C(=C/OC1=C2C(C=CC=C2)=CC=C1)\C(NC(C)C)O,-3.62
GDOGPDPNZQCHSG-UHFFFAOYSA-N,,C#CCN(Cc1cc2c(=O)n(C)c(C)nc2cc1Br)c1cnc(C(=O)NCc2cccnc2)cn1,Cc1nc2cc(c(cc2c(=O)n1C)CN(CC#C)c3cnc(cn3)C(=O)NCc4cccnc4)Br,CC1=NC=2C=C(C(=CC2C(=O)N1C)CN(CC#C)C=3C=NC(=CN3)C(=O)NCC=4C=CC=NC4)Br,-5.5086383
GDPWREURSHCWNT-UHFFFAOYSA-N,,CN(C)C(=O)C(Cc1ccccc1)NC(=O)c1cc2sc(Br)cc2[nH]1,CN(C)C(=O)C(Cc1ccccc1)NC(=O)c2cc3c([nH]2)cc(s3)Br,CN(C)C(=O)C(CC=1C=CC=CC1)NC(=O)C2=CC=3SC(=CC3N2)Br,-5.366531500000001
GDQDVUDHHSLMMA-UHFFFAOYSA-N,,COc1cc2c(cc1OC)C1=C(C#N)C(C)NC(=O)N1CC2,CC1C(=C2c3cc(c(cc3CCN2C(=O)N1)OC)OC)C#N,COC=1C=C2C(=CC1OC)C3=C(C(NC(=O)N3CC2)C)C#N,-4.522878700000001
GDTIBAVKZQRTSP-UHFFFAOYSA-N,,O=C(O)c1cc2ccc(Br)cc2n1Cc1ccc(Cl)c(Cl)c1,c1cc(c(cc1Cn2c3cc(ccc3cc2C(=O)O)Br)Cl)Cl,OC(=O)C1=CC=2C=CC(=CC2N1CC=3C=CC(=C(C3)Cl)Cl)Br,-4.0809219
GDTZUQIYUMGJRT-UHFFFAOYSA-N,AMIDOTHION,COCCNC(=O)CSP(=S)(OC)OC,COCCNC(=O)CSP(=S)(OC)OC,P(=S)(SCC(=O)NCCOC)(OC)OC,-1.1358
GDUYGUUHUAUKPL-UHFFFAOYSA-N,,O=C(C1CCN(c2ccncc2)CC1)N1CCN(S(=O)(=O)c2cc3cc(Cl)ccc3o2)CC1,c1cc2c(cc1Cl)cc(o2)S(=O)(=O)N3CCN(CC3)C(=O)C4CCN(CC4)c5ccncc5,ClC=1C=CC=2OC(=CC2C1)S(=O)(=O)N3CCN(CC3)C(=O)C4CCN(CC4)C=5C=CN=CC5,-4.0
GDWUNKJJSAKJSC-UHFFFAOYSA-N,"1(3H)-Isobenzofuranone, 6-iodo-",O=C1OCc2ccc(I)cc21,c1cc2c(cc1I)C(=O)OC2,IC=1C=CC2=C(C1)C(=O)OC2,-3.21095
GDXHBFHOEYVPED-UHFFFAOYSA-N,"1,2-dibutyoxyethane",CCCCOCCOCCCC,CCCCOCCOCCCC,O(CCOCCCC)CCCC,-1.94
GDYFGLMBOCENII-UHFFFAOYSA-N,,CCNc1cccc(Oc2ccc(Nc3c(C#N)cnc4cc(OCCN5CCCC5)c(OC)cc34)cc2)c1,CCNc1cccc(c1)Oc2ccc(cc2)Nc3c4cc(c(cc4ncc3C#N)OCCN5CCCC5)OC,CCNC=1C=CC=C(C1)OC=2C=CC(=CC2)NC=3C(=CN=C4C3C=C(C(=C4)OCCN5CCCC5)OC)C#N,-5.2676062
GECBBEABIDMGGL-UHFFFAOYSA-N,nabilone,CCCCCCC(C)(C)c1cc(O)c2c(c1)OC(C)(C)[C@@H]1CCC(=O)C[C@@H]21,CCCCCCC(C)(C)c1cc(c2c(c1)OC([C@H]3[C@H]2CC(=O)CC3)(C)C)O,CCCCCCC(C)(C)C1=CC(=C2C(=C1)OC([C@H]3[C@H]2CC(=O)CC3)(C)C)O,-5.88097683
GECHAQXLFDCCIS-UHFFFAOYSA-N,,CC(=O)N1CCN(CC(O)COc2ccc(Nc3cc(Nc4cc(Cl)ccc4Cl)ncn3)cc2)CC1,CC(=O)N1CCN(CC1)CC(COc2ccc(cc2)Nc3cc(ncn3)Nc4cc(ccc4Cl)Cl)O,CC(=O)N1CCN(CC1)CC(O)COC=2C=CC(=CC2)NC=3C=C(N=CN3)NC=4C=C(C=CC4Cl)Cl,-5.6575773
GECHUMIMRBOMGK-UHFFFAOYSA-N,Sulfapyridine,Nc1ccc(S(=O)(=O)Nc2ccccn2)cc1,c1ccnc(c1)NS(=O)(=O)c2ccc(cc2)N,S(=O)(=O)(NC=1N=CC=CC1)C=2C=CC(=CC2)N,-2.81913
GEDIWDLJKRKBFT-UHFFFAOYSA-N,Pyrolan,Cc1cc(OC(=O)N(C)C)n(-c2ccccc2)n1,Cc1cc(n(n1)c2ccccc2)OC(=O)N(C)C,O=C(OC=1N(N=C(C1)C)C=2C=CC=CC2)N(C)C,-2.09
GEFATVANQYOXLC-UHFFFAOYSA-N,propyl 4-hydroxy-3-iodobenzoate,CCCOC(=O)c1ccc(O)c(I)c1,CCCOC(=O)c1ccc(c(c1)I)O,CCCOC(=O)C=1C=CC(=C(C1)I)O,-3.687
GEGPFISHWUAGJI-UHFFFAOYSA-N,,CC(NC(=O)Cn1c(-c2ccccc2)ccc(NC(=O)OCc2ccccc2)c1=O)C(O)C(=O)NO,CC(C(C(=O)NO)O)NC(=O)Cn1c(ccc(c1=O)NC(=O)OCc2ccccc2)c3ccccc3,CC(NC(=O)CN1C(=CC=C(C1=O)NC(=O)OCC=2C=CC=CC2)C=3C=CC=CC3)C(O)C(=O)NO,-4.6197888
GEIXIYKKJIEAIJ-UHFFFAOYSA-N,,CC(CC(CS(=O)(=O)N1CCN(c2ccc(Cl)cc2)CC1)N(O)C=O)c1ncc(F)cn1,CC(CC(CS(=O)(=O)N1CCN(CC1)c2ccc(cc2)Cl)N(C=O)O)c3ncc(cn3)F,CC(CC(CS(=O)(=O)N1CCN(CC1)C=2C=CC(=CC2)Cl)N(O)C=O)C=3N=CC(=CN3)F,-4.5086383
GELSOTNVVKOYAW-UHFFFAOYSA-N,ethyltriphenylphosphanium iodide,CC[P+](c1ccccc1)(c1ccccc1)c1ccccc1,CC[P+](c1ccccc1)(c2ccccc2)c3ccccc3,CC[P+](C=1C=CC=CC1)(C=2C=CC=CC2)C=3C=CC=CC3,-1.332109265
GEMHNGLORSISHO-UHFFFAOYSA-N,2-CARBOXY-7-METHYLTHIOXANTHONE; 7-Methylthioxanthone-2-carboxylic; 7-Methylsulfanyl-9-oxo-9H-xanthene-2-carboxylic acid acid,CSc1ccc2oc3ccc(C(=O)O)cc3c(=O)c2c1,CSc1ccc2c(c1)c(=O)c3cc(ccc3o2)C(=O)O,CSC1=CC=C2OC3=C(C=C(C=C3)C(=O)O)C(=O)C2=C1,-5.32
GENCWDNMCNANTP-UHFFFAOYSA-N,,COc1cc2c(Nc3cnc(OCCCC4CCCCC4)nc3)ncnc2cc1OCCCN1CCCCC1,COc1cc2c(cc1OCCCN3CCCCC3)ncnc2Nc4cnc(nc4)OCCCC5CCCCC5,COC=1C=C2C(=NC=NC2=CC1OCCCN3CCCCC3)NC=4C=NC(=NC4)OCCCC5CCCCC5,-4.5686362
GEOFXJTWUJMUFZ-UHFFFAOYSA-N,NANDROLONE  BUTYRATE,CCCC(=O)OC1CCC2C3CCC4=CC(=O)CCC4C3CCC12C,CCCC(=O)OC1CCC2C1(CCC3C2CCC4=CC(=O)CCC34)C,CCCC(=O)OC1CCC2C1(CCC3C2CCC4=CC(=O)CCC43)C,-5.91
GEPDYQSQVLXLEU-UHFFFAOYSA-N,MEVINPHOS (TRANS),COC(=O)/C=C(\C)OP(=O)(OC)OC,C/C(=C\C(=O)OC)/OP(=O)(OC)OC,P(=O)(O/C(=C/C(=O)OC)/C)(OC)OC,0.6495
GEQZQWZKJCIAQZ-UHFFFAOYSA-N,,COc1cc2c(Nc3cnc(OCCCCC(C)C)nc3)ncnc2cc1OCCCN1CCCCC1,CC(C)CCCCOc1ncc(cn1)Nc2c3cc(c(cc3ncn2)OCCCN4CCCCC4)OC,COC=1C=C2C(=NC=NC2=CC1OCCCN3CCCCC3)NC=4C=NC(=NC4)OCCCCC(C)C,-5.7447275
GETTZEONDQJALK-UHFFFAOYSA-N,Benzyltrifluoride,FC(F)(F)c1ccccc1,c1ccc(cc1)C(F)(F)F,FC(F)(F)C=1C=CC=CC1,-2.5105
GEUFAQXFPHRGPL-UHFFFAOYSA-N,,CN(C)CC(O)COc1ccc(Nc2ncc(Br)c(Nc3ccc(Cl)cc3)n2)cc1,CN(C)CC(COc1ccc(cc1)Nc2ncc(c(n2)Nc3ccc(cc3)Cl)Br)O,CN(C)CC(O)COC=1C=CC(=CC1)NC=2N=CC(=C(N2)NC=3C=CC(=CC3)Cl)Br,-4.4436975
GEUZJBMJDHYJEC-UHFFFAOYSA-N,"THEOPHYLLIN-7-YLMETHYL 3-(N,N-DIETHYLCARBAMOYL)PROPIONATE; N,N-Diethylsuccinamic acid theophyllin-7-ylmethyl ester",CCN(CC)C(=O)CCC(=O)OCn1cnc2c1c(=O)n(C)c(=O)n2C,CCN(CC)C(=O)CCC(=O)OCn1cnc2c1c(=O)n(c(=O)n2C)C,CCN(CC)C(=O)CCC(=O)OCN1C=NC2=C1C(=O)N(C(=O)N2C)C,-1.14
GEVCSRLIETZLTD-UHFFFAOYSA-N,"1H-Purine, 2-(methylthio)-",CSc1ncc2nc[nH]c2n1,CSc1ncc2c(n1)[nH]cn2,N=1C(=NC2=C(C1)N=CN2)SC,-2.5469999999999997
GEXYKHGZZJRRBO-UHFFFAOYSA-N,,O=C(NCCN1CCSCC1)c1ccc(Nc2ncc(Cl)c(Nc3ccccc3)n2)cc1,c1ccc(cc1)Nc2c(cnc(n2)Nc3ccc(cc3)C(=O)NCCN4CCSCC4)Cl,ClC=1C=NC(=NC1NC=2C=CC=CC2)NC=3C=CC(=CC3)C(=O)NCCN4CCSCC4,-6.327902099999999
GEZCNJPZLJGPPK-UHFFFAOYSA-N,,[O-][n+]1cccc2c1CCc1cnc(-c3ccc(Cl)cc3)nc1-2,c1cc-2c([n+](c1)[O-])CCc3c2nc(nc3)c4ccc(cc4)Cl,[O-][N+]=1C2=C(C=CC1)C3=C(C=NC(=N3)C=4C=CC(=CC4)Cl)CC2,-5.1606059
GFBKOADVXIDVBA-UHFFFAOYSA-N,"Carbamic acid, sulfamoyl-, butyl ester",CCCCOC(=O)NS(N)(=O)=O,CCCCOC(=O)NS(=O)(=O)N,S(=O)(=O)(NC(=O)OCCCC)N,-1.038
GFBKORZTTCHDGY-UHFFFAOYSA-N,,CN1CCN(CC/C=C2\c3ccccc3Sc3ccc(S(=O)(=O)N(C)C)cc32)CC1,CN1CCN(CC1)CC/C=C/2\c3ccccc3Sc4c2cc(cc4)S(=O)(=O)N(C)C,CN1CCN(CC1)CC/C=C\2/C3=C(C=CC(=C3)S(=O)(=O)N(C)C)SC4=C2C=CC=C4,0.3463
GFBQVPXOWNHWAU-UHFFFAOYSA-N,,COc1cc2c(Nc3ccc(F)c(Cl)c3)ncnc2cc1OCCn1ccnc1,COc1cc2c(cc1OCCn3ccnc3)ncnc2Nc4ccc(c(c4)Cl)F,COC=1C=C2C(=NC=NC2=CC1OCCN3C=CN=C3)NC=4C=CC(=C(C4)Cl)F,-6.537602
GFEGEDUIIYDMOX-UHFFFAOYSA-N,Thiamine Disulfide,C/C(=C(/CCO)SS/C(CCO)=C(\C)N(C=O)Cc1cnc(C)nc1N)N(C=O)Cc1cnc(C)nc1N,Cc1ncc(c(n1)N)CN(C=O)/C(=C(\CCO)/SS/C(=C(\C)/N(Cc2cnc(nc2N)C)C=O)/CCO)/C,N=1C(=C(C=NC1C)CN(/C(=C(/SS/C(=C(/N(CC2=C(N=C(N=C2)C)N)C=O)\C)/CCO)\CCO)/C)C=O)N,0.0041
GFEZPWSNHCQPEU-UHFFFAOYSA-N,,CN(C)CC(O)COc1ccc(Nc2ncc(Br)c(Nc3cccc(CO)c3)n2)cc1,CN(C)CC(COc1ccc(cc1)Nc2ncc(c(n2)Nc3cccc(c3)CO)Br)O,CN(C)CC(O)COC=1C=CC(=CC1)NC=2N=CC(=C(N2)NC=3C=CC=C(C3)CO)Br,-3.8239087
GFFGJBXGBJISGV-UHFFFAOYSA-N,adenine;  6-aminopurine,Nc1ncnc2nc[nH]c12,c1[nH]c2c(ncnc2n1)N,NC=1N=CN=C2C1NC=N2,-2.12
GFFOAZOYBIIJHI-UHFFFAOYSA-N,METRONIDAZOLE  PHOSPHATE,Cc1ncc([N+](=O)[O-])n1CCOP(=O)(O)O,Cc1ncc(n1CCOP(=O)(O)O)[N+](=O)[O-],CC1=NC=C(N1CCOP(=O)(O)O)[N+](=O)[O-],-1.38
GFIYIIRFIODLLU-UHFFFAOYSA-N,"4-bromo-2,2-diphenylbutanoic acid",O=C(O)C(CCBr)(c1ccccc1)c1ccccc1,c1ccc(cc1)C(CCBr)(c2ccccc2)C(=O)O,OC(=O)C(CCBr)(C=1C=CC=CC1)C=2C=CC=CC2,-4.069245629
GFJIQNADMLPFOW-UHFFFAOYSA-N,"(2E)-1-(2,6,6-trimethylcyclohex-1-en-1-yl)but-2-en-1-one",C=C[C@]1(C)CC[C@@H](C(C)(C)O)C[C@H]1C(=C)C,CC(=C)[C@@H]1C[C@@H](CC[C@@]1(C)C=C)C(C)(C)O,CC(=C)[C@@H]1C[C@@H](CC[C@@]1(C)C=C)C(C)(C)O,-3.0591391860000003
GFJOCFYAAVCNRB-UHFFFAOYSA-N,,COc1cc2c(Oc3ccc4[nH]c(C)cc4c3)ncnc2cc1OCC(O)CN1CCOCC1,Cc1cc2cc(ccc2[nH]1)Oc3c4cc(c(cc4ncn3)OCC(CN5CCOCC5)O)OC,COC=1C=C2C(=NC=NC2=CC1OCC(O)CN3CCOCC3)OC=4C=CC=5NC(=CC5C4)C,-4.4436975
GFJPTYBHVRXQNC-UHFFFAOYSA-N,,O=C(NC(Cc1ccc(F)cc1)C(=O)N1CCC(O)CC1)c1cc2scc(Cl)c2[nH]1,c1cc(ccc1CC(C(=O)N2CCC(CC2)O)NC(=O)c3cc4c([nH]3)c(cs4)Cl)F,OC1CCN(CC1)C(=O)C(CC=2C=CC(=CC2)F)NC(=O)C3=CC=4SC=C(C4N3)Cl,-4.0604807
GFMPOOQZZASSSJ-UHFFFAOYSA-N,,c1ccc2c(c1)OCc1cn(-c3ncc[nH]3)nc1-2,c1ccc2c(c1)-c3c(cn(n3)c4[nH]ccn4)CO2,N1=C(NC=C1)N2C=C3C(=N2)C=4C(=CC=CC4)OC3,-5.5037123
GFMRARCDRIKDAV-UHFFFAOYSA-N,"2,3,5-TRICHLOROPHENOXYACETIC  ACID",O=C(O)COc1cc(Cl)cc(Cl)c1Cl,c1c(cc(c(c1OCC(=O)O)Cl)Cl)Cl,OC(=O)COC1=C(C(=CC(=C1)Cl)Cl)Cl,-3.0
GFMYFFKVNLSQKT-UHFFFAOYSA-N,,O=C(Nc1ccccc1)c1ccccc1NS(=O)(=O)c1ccc(Cl)c(Cl)c1,c1ccc(cc1)NC(=O)c2ccccc2NS(=O)(=O)c3ccc(c(c3)Cl)Cl,ClC=1C=CC(=CC1Cl)S(=O)(=O)NC=2C=CC=CC2C(=O)NC=3C=CC=CC3,-5.8728952
GFNANZIMVAIWHM-UHFFFAOYSA-N,Triamcinolone,C[C@]12C[C@H](O)[C@@]3(F)[C@@H](CCC4=CC(=O)C=C[C@@]43C)[C@@H]1C[C@@H](O)[C@]2(O)C(=O)CO,C[C@]12C[C@@H]([C@]3([C@H]([C@@H]1C[C@H]([C@@]2(C(=O)CO)O)O)CCC4=CC(=O)C=C[C@@]43C)F)O,O=C1C=CC2(C(=C1)CCC3C2(C(CC4(C3CC(C4(O)C(=O)CO)O)C)O)F)C,-3.69
GFPIGNBQTXNNAG-UHFFFAOYSA-N,"BARBITURIC ACID, 5-IPR",CC(C)C1C(=O)NC(=O)NC1=O,CC(C)C1C(=O)NC(=O)NC1=O,N1C(=O)C(C(=O)NC1=O)C(C)C,-1.456
GFRUPHOKLBPHTQ-UHFFFAOYSA-N,oxyphenonium bromide,CC[N+](C)(CC)CCOC(=O)C(O)(c1ccccc1)C1CCCCC1,CC[N+](C)(CC)CCOC(=O)C(c1ccccc1)(C2CCCCC2)O,CC[N+](C)(CC)CCOC(=O)C(C1CCCCC1)(C2=CC=CC=C2)O,-0.9328794579999999
GFTZHNXWQQWFIN-UHFFFAOYSA-N,,CN(c1ccc(S(=O)(=O)c2ccc(NC(=O)C(C)(O)C(F)(F)F)c(Cl)c2)cc1)S(C)(=O)=O,CC(C(=O)Nc1ccc(cc1Cl)S(=O)(=O)c2ccc(cc2)N(C)S(=O)(=O)C)(C(F)(F)F)O,CN(C=1C=CC(=CC1)S(=O)(=O)C=2C=CC(=C(C2)Cl)NC(=O)C(C)(O)C(F)(F)F)S(=O)(=O)C,-4.2676062
GFWWREGOTNQVGC-UHFFFAOYSA-N,"5-Pyrimidineacetic acid, 1,2,3,4-tetrahydro-6-me",Cc1[nH]c(=O)[nH]c(=O)c1CC(=O)O,Cc1c(c(=O)[nH]c(=O)[nH]1)CC(=O)O,CC1=C(C(=O)NC(=O)N1)CC(=O)O,-2.3095
GGAUUQHSCNMCAU-UHFFFAOYSA-N,"Butane-1,2,3,4-tetracarboxylic acid, racemic",O=C(O)CC(C(=O)O)C(CC(=O)O)C(=O)O,C(C(C(CC(=O)O)C(=O)O)C(=O)O)C(=O)O,OC(=O)CC(C(CC(=O)O)C(=O)O)C(=O)O,-0.2388
GGCSSNBKKAUURC-UHFFFAOYSA-N,sufentanil,CCC(=O)N(c1ccccc1)C1(COC)CCN(CCc2cccs2)CC1,CCC(=O)N(c1ccccc1)C2(CCN(CC2)CCc3cccs3)COC,O=C(CC)N(C1=CC=CC=C1)C2(CCN(CC2)CCC3=CC=CS3)COC,-3.71
GGDDRTHFXZMAJI-UHFFFAOYSA-N,,COc1ccc(C(=O)Nc2cc(Nc3ncnc4cc(OC)c(OC)cc34)ccc2C)cc1,Cc1ccc(cc1NC(=O)c2ccc(cc2)OC)Nc3c4cc(c(cc4ncn3)OC)OC,COC=1C=CC(=CC1)C(=O)NC=2C=C(C=CC2C)NC=3N=CN=C4C3C=C(C(=C4)OC)OC,-6.30103
GGELQNATMVVRDT-UHFFFAOYSA-N,,CCCNC(=O)Nc1ccc2c(c1)OCC(C)N(C(=O)C1CCC1)CC(C)C(OC)CN(C)C2=O,CCCNC(=O)Nc1ccc2c(c1)OCC(N(CC(C(CN(C2=O)C)OC)C)C(=O)C3CCC3)C,CCCNC(=O)NC1=CC=C2C(=C1)OCC(N(CC(C(CN(C2=O)C)OC)C)C(=O)C3CCC3)C,-4.022
GGFFBRRZAKLGFX-UHFFFAOYSA-N,"1,4-Naphthalenedione, 2-(methylthio)-",CSC1=CC(=O)c2ccccc2C1=O,CSC1=CC(=O)c2ccccc2C1=O,CSC1=CC(=O)C=2C=CC=CC2C1=O,-4.46505
GGHMUJBZYLPWFD-UHFFFAOYSA-N,Patchoulialcohol,C[C@H]1CCC2(O)C(C)(C)C3CC[C@]2(C)C1C3,C[C@H]1CCC2(C(C3CC[C@@]2(C1C3)C)(C)C)O,C[C@H]1CCC2(C(C3CC[C@@]2(C1C3)C)(C)C)O,-3.72595191
GGHUYNNAIFPHOY-UHFFFAOYSA-N,,CC(O)(C(=O)Nc1ccc(S(=O)(=O)C2CCCC2)c(N2CCS(=O)(=O)CC2)c1Cl)C(F)(F)F,CC(C(=O)Nc1ccc(c(c1Cl)N2CCS(=O)(=O)CC2)S(=O)(=O)C3CCCC3)(C(F)(F)F)O,CC(O)(C(=O)NC=1C=CC(=C(C1Cl)N2CCS(=O)(=O)CC2)S(=O)(=O)C3CCCC3)C(F)(F)F,-5.2757241
GGHZPLWDZWJSQY-UHFFFAOYSA-N,,COc1cc2c(Nc3cccc4c3OCO4)c(C#N)cnc2cc1OCCCN1CCN(C)CC1,CN1CCN(CC1)CCCOc2cc3c(cc2OC)c(c(cn3)C#N)Nc4cccc5c4OCO5,COC=1C=C2C(=C(C=NC2=CC1OCCCN3CCN(CC3)C)C#N)NC=4C=CC=C5C4OCO5,-3.8696662000000006
GGJAOEQWTBXOBW-UHFFFAOYSA-N,,Fc1cccc(Nc2nc(Nc3cccc(F)c3)nc(Nc3cccc(F)c3)n2)c1,c1cc(cc(c1)F)Nc2nc(nc(n2)Nc3cccc(c3)F)Nc4cccc(c4)F,FC=1C=CC=C(C1)NC=2N=C(N=C(N2)NC=3C=CC=C(C3)F)NC=4C=CC=C(C4)F,-6.9677077999999995
GGKQIOFASHYUJZ-UHFFFAOYSA-N,,CCCCCCCCc1c(CC)nc2ncnn2c1N,CCCCCCCCc1c(nc2ncnn2c1N)CC,N1=C(C(=C(N2C1=NC=N2)N)CCCCCCCC)CC,-6.263999999999999
GGLIEWRLXDLBBF-UHFFFAOYSA-N,"urea, (4-ethoxyphenyl)-",CCOc1ccc(NC(N)=O)cc1,CCOc1ccc(cc1)NC(=O)N,O=C(NC=1C=CC(=CC1)OCC)N,-2.17