inchikey,Name,SMILES_stand,SMILES,kekSmiles,logS
CBNSBRVOBGWOBM-UHFFFAOYSA-N,"3-(5-chloro-1,3-benzoxazol-2-yl)-7-(diethylamino)-2H-chromen-2-one",CCN(CC)c1ccc2cc(-c3nc4cc(Cl)ccc4o3)c(=O)oc2c1,CCN(CC)c1ccc2cc(c(=O)oc2c1)c3nc4cc(ccc4o3)Cl,CCN(CC)C=1C=CC=2C=C(C(=O)OC2C1)C=3OC=4C=CC(=CC4N3)Cl,-7.487816608999999
CBOQJANXLMLOSS-UHFFFAOYSA-N,"benzaldehyde, 3-ethoxy-4-hydroxy-",CCOc1cc(C=O)ccc1O,CCOc1cc(ccc1O)C=O,CCOC=1C=C(C=CC1O)C=O,-1.77
CBOSYMOPYJBQJA-UHFFFAOYSA-N,,O=C(c1ccc(Nc2ncc(Br)c(Nc3ccccc3)n2)cc1)N1CCC(N2CCCC2)CC1,c1ccc(cc1)Nc2c(cnc(n2)Nc3ccc(cc3)C(=O)N4CCC(CC4)N5CCCC5)Br,BrC=1C=NC(=NC1NC=2C=CC=CC2)NC=3C=CC(=CC3)C(=O)N4CCC(CC4)N5CCCC5,-4.5086383
CBPJQFCAFFNICX-UHFFFAOYSA-N,2-(9H-fluoren-9-ylmethoxycarbonylamino)-4-methylpentanoic acid,CC(C)CC(NC(=O)OCC1c2ccccc2-c2ccccc21)C(=O)O,CC(C)CC(C(=O)O)NC(=O)OCC1c2ccccc2-c3c1cccc3,CC(C)CC(NC(=O)OCC1C2=C(C=CC=C2)C3=C1C=CC=C3)C(=O)O,-3.7405
CBQGYUDMJHNJBX-UHFFFAOYSA-N,reboxetine,CCOc1ccccc1O[C@H](c1ccccc1)[C@H]1CNCCO1,CCOc1ccccc1O[C@H](c2ccccc2)[C@H]3CNCCO3,CCOC1=CC=CC=C1O[C@@H]([C@H]2CNCCO2)C3=CC=CC=C3,-1.592995147
CBQJSKKFNMDLON-UHFFFAOYSA-N,2-acetamido-3-phenylpropanoic acid,CC(=O)NC(Cc1ccccc1)C(=O)O,CC(=O)NC(Cc1ccccc1)C(=O)O,CC(=O)NC(CC1=CC=CC=C1)C(=O)O,-1.4085
CBRLVIBMEZHDPU-UHFFFAOYSA-N,,COc1cc2c(Nc3ccc(Oc4cccc(C(=O)NC5CC5)c4)cc3)c(C#N)cnc2cc1OCCCN1CCOCC1,COc1cc2c(cc1OCCCN3CCOCC3)ncc(c2Nc4ccc(cc4)Oc5cccc(c5)C(=O)NC6CC6)C#N,COC=1C=C2C(=C(C=NC2=CC1OCCCN3CCOCC3)C#N)NC=4C=CC(=CC4)OC=5C=CC=C(C5)C(=O)NC6CC6,-6.920818799999999
CBTRFUBJAWKFBW-UHFFFAOYSA-N,,COc1ccc(N2C(=O)CSC2c2c(F)cccc2Cl)c(OC)c1,COc1ccc(c(c1)OC)N2C(SCC2=O)c3c(cccc3Cl)F,COC=1C=CC(=C(C1)OC)N2C(SCC2=O)C=3C(=CC=CC3Cl)F,-4.853872
CBVCZFGXHXORBI-UHFFFAOYSA-N,indinavir sulfate,CC(C)(C)NC(=O)[C@@H]1CN(Cc2cccnc2)CCN1C[C@@H](O)C[C@@H](Cc1ccccc1)C(=O)N[C@H]1c2ccccc2C[C@H]1O,CC(C)(C)NC(=O)[C@@H]1CN(CCN1C[C@H](C[C@@H](Cc2ccccc2)C(=O)N[C@H]3c4ccccc4C[C@H]3O)O)Cc5cccnc5,OC(CN1C(CN(CC1)CC=2C=CC=NC2)C(=O)NC(C)(C)C)CC(C(=O)NC3C(CC=4C3=CC=CC4)O)CC5=CC=CC=C5,-4.308154716000001
CBVJNCUEPFCOOK-UHFFFAOYSA-N,2-(4-methylpiperazin-1-yl)ethyl 2-(6-methoxynaphthalen-2-yl)propanoate,COc1ccc2cc(C(C)C(=O)OCCN3CCN(C)CC3)ccc2c1,CC(c1ccc2cc(ccc2c1)OC)C(=O)OCCN3CCN(CC3)C,COC1=CC2=CC=C(C=C2C=C1)C(C)C(=O)OCCN3CCN(CC3)C,-1.4885
CBVPAEHCYFZMPP-UHFFFAOYSA-N,,COc1cc2c(Nc3ccc(Oc4ccccc4OC)cc3)c(C#N)cnc2cc1OCCCN1CCNCC1,COc1ccccc1Oc2ccc(cc2)Nc3c4cc(c(cc4ncc3C#N)OCCCN5CCNCC5)OC,COC=1C=CC=CC1OC=2C=CC(=CC2)NC=3C(=CN=C4C3C=C(C(=C4)OCCCN5CCNCC5)OC)C#N,-5.1487417
CBVWMGCJNPPAAR-UHFFFAOYSA-N,(E)-N-(5-methylheptan-3-ylidene)hydroxylamine,CC/C(CC(C)CC)=N/O,CCC(C)C/C(=N\O)/CC,CCC(C)C/C(=N\O)/CC,-2.1308640640000003
CBYGZQGWPLKYCV-UHFFFAOYSA-N,,COc1cc2c(NC(=O)Nc3c(C)cccc3C)ncnc2cc1OCC1CNCCO1,Cc1cccc(c1NC(=O)Nc2c3cc(c(cc3ncn2)OCC4CNCCO4)OC)C,COC=1C=C2C(=NC=NC2=CC1OCC3CNCCO3)NC(=O)NC=4C(=CC=CC4C)C,-4.3187587999999995
CBYWHFTZNVZQHV-UHFFFAOYSA-N,2-tert-butyl-6-(3-tert-butyl-2-hydroxy-5-methoxyphenyl)-4-methoxyphenol,COc1cc(-c2cc(OC)cc(C(C)(C)C)c2O)c(O)c(C(C)(C)C)c1,CC(C)(C)c1cc(cc(c1O)c2cc(cc(c2O)C(C)(C)C)OC)OC,COC=1C=C(C(=C(C1)C(C)(C)C)O)C=2C=C(C=C(C2O)C(C)(C)C)OC,-6.776155629
CBZMTCJDZFDFKR-UHFFFAOYSA-N,,CN(C)CCCN(C)c1nc2cc(N)ccc2nc1-c1ccc(Br)s1,CN(C)CCCN(C)c1c(nc2ccc(cc2n1)N)c3ccc(s3)Br,CN(C)CCCN(C)C=1N=C2C=C(C=CC2=NC1C3=CC=C(S3)Br)N,-3.4975728999999998
CBZUMPOKTUVIOS-UHFFFAOYSA-N,"3,5-Piperidinedicarbonitrile, 4-butyl-4-methyl-2",CCCCC1(C)C(C#N)C(=O)NC(=O)C1C#N,CCCCC1(C(C(=O)NC(=O)C1C#N)C#N)C,N1C(=O)C(C(C(C1=O)C#N)(CCCC)C)C#N,-2.164
CCAZWUJBLXKBAY-UHFFFAOYSA-N,Tutin,C=C(C)[C@H]1[C@@H]2C(=O)O[C@H]1[C@@H](O)[C@]1(C)[C@@]2(O)[C@H]2O[C@H]2[C@]12CO2,CC(=C)[C@@H]1[C@@H]2[C@H]([C@]3([C@@]4(CO4)[C@H]5[C@@H]([C@]3([C@H]1C(=O)O2)O)O5)C)O,CC(=C)[C@@H]1[C@H]2OC(=O)[C@@H]1[C@@]3([C@H]4O[C@H]4[C@@]5([C@@]3([C@@H]2O)C)CO5)O,-1.19
CCBAAZXPXFYPBE-UHFFFAOYSA-N,"2-Oxabicyclo[2.2.2]octan-6-one, 1,3,3-trimethyl-",CC12CCC(CC1=O)C(C)(C)O2,CC1(C2CCC(O1)(C(=O)C2)C)C,O1C2(C(=O)CC(C1(C)C)CC2)C,-0.9249
CCBUAQOJPDCNAJ-UHFFFAOYSA-N,"1,3-BIS(ACETOXYMETHYL)-5-FLUOROURACIL",CC(=O)OCn1cc(F)c(=O)n(COC(C)=O)c1=O,CC(=O)OCn1cc(c(=O)n(c1=O)COC(=O)C)F,CC(=O)OCN1C=C(C(=O)N(C1=O)COC(=O)C)F,-1.81
CCCTUMZHWVZMQA-UHFFFAOYSA-N,"Urea, N-(2,3-dihydro-1,5-dimethyl-3-oxo-2-phenyl",CCNC(=O)Nc1c(C)n(C)n(-c2ccccc2)c1=O,CCNC(=O)Nc1c(n(n(c1=O)c2ccccc2)C)C,N1(C(=O)C(=C(N1C)C)NC(=O)NCC)C2=CC=CC=C2,-1.828
CCDRCQNHQGRXHO-UHFFFAOYSA-N,"2,3,4,6'-Tetrachlorobenzyl 6-toluene",Cc1cc(Cl)c(Cl)c(Cl)c1Cc1ccccc1Cl,Cc1cc(c(c(c1Cc2ccccc2Cl)Cl)Cl)Cl,CC1=C(C(=C(C(=C1)Cl)Cl)Cl)CC2=C(C=CC=C2)Cl,-7.24
CCEBZZZONAXMFM-UHFFFAOYSA-N,,O=C(Nc1ccccc1)N1CCN(c2ccccn2)CC1,c1ccc(cc1)NC(=O)N2CCN(CC2)c3ccccn3,O=C(NC=1C=CC=CC1)N2CCN(CC2)C=3C=CC=CN3,-3.7695510999999997
CCEFMUBVSUDRLG-UHFFFAOYSA-N,Limonene oxide (cis + trans),C=C(C)C1CCC2(C)OC2C1,CC(=C)C1CCC2(C(C1)O2)C,C1CC(CC2C1(O2)C)C(=C)C,-2.336
CCEZFZGXWFJQEF-UHFFFAOYSA-N,"3,4',5-Trichlorodiphenyl ether",Clc1ccc(Oc2cc(Cl)cc(Cl)c2)cc1,c1cc(ccc1Oc2cc(cc(c2)Cl)Cl)Cl,ClC=1C=CC(=CC1)OC=2C=C(C=C(C2)Cl)Cl,-5.52005
CCGPUGMWYLICGL-UHFFFAOYSA-N,"neburon;  1-methyl-1-butyl-3-(3,4-dichlorophenyl)urea",CCCCN(C)C(=O)Nc1ccc(Cl)c(Cl)c1,CCCCN(C)C(=O)Nc1ccc(c(c1)Cl)Cl,O=C(NC1=CC(=C(C=C1)Cl)Cl)N(C)CCCC,-4.77
CCHULEVWNDFTRO-UHFFFAOYSA-N,,CCCN1CCC(Oc2cccc(C(=O)Nc3cc(C(=O)Nc4cccc(N5CCOCC5)c4)ccc3C)c2)CC1,CCCN1CCC(CC1)Oc2cccc(c2)C(=O)Nc3cc(ccc3C)C(=O)Nc4cccc(c4)N5CCOCC5,CCCN1CCC(CC1)OC=2C=CC=C(C2)C(=O)NC=3C=C(C=CC3C)C(=O)NC=4C=CC=C(C4)N5CCOCC5,-3.8239087
CCJQRZIECSQVPL-UHFFFAOYSA-N,,Nc1cccc(NC(=O)c2ccc(CNC(=O)OCc3cccnc3)cc2)c1,c1cc(cc(c1)NC(=O)c2ccc(cc2)CNC(=O)OCc3cccnc3)N,NC=1C=CC=C(C1)NC(=O)C=2C=CC(=CC2)CNC(=O)OCC=3C=CC=NC3,-4.6575773
CCJSNGLAKDMUFC-UHFFFAOYSA-N,,N#Cc1ccccc1Nc1nc(Nc2ccc(S(=O)(=O)Nc3nccs3)cc2)ncc1Cl,c1ccc(c(c1)C#N)Nc2c(cnc(n2)Nc3ccc(cc3)S(=O)(=O)Nc4nccs4)Cl,ClC=1C=NC(=NC1NC=2C=CC=CC2C#N)NC=3C=CC(=CC3)S(=O)(=O)NC4=NC=CS4,-6.0
CCKSYUMJLIMSQK-UHFFFAOYSA-N,"2-Butenedioic acid, 2-propyl-, (E)-",CCC/C(=C\C(=O)O)C(=O)O,CCC/C(=C\C(=O)O)/C(=O)O,OC(=O)/C(=C/C(=O)O)/CCC,-1.1540000000000001
CCKTWIMIIKGLNN-UHFFFAOYSA-N,,c1ccc2c(c1)OCc1cnc(-c3cnccn3)nc1-2,c1ccc2c(c1)-c3c(cnc(n3)c4cnccn4)CO2,C=1N=CC=NC1C=2N=CC3=C(N2)C4=C(C=CC=C4)OC3,-3.5436907
CCLBBCBPHBBKKD-UHFFFAOYSA-N,octan-1-amine dibutyl sulfanylphosphonate,CCCCOP(=O)(S)OCCCC,CCCCOP(=O)(OCCCC)S,CCCCOP(=O)(S)OCCCC,-1.8796973019999998
CCOPTYVGCANMMN-UHFFFAOYSA-N,,CCN(CC)CCOc1cc2ncnc(Oc3ccc4[nH]c(C)cc4c3)c2cc1OC,CCN(CC)CCOc1cc2c(cc1OC)c(ncn2)Oc3ccc4c(c3)cc([nH]4)C,CCN(CC)CCOC=1C=C2N=CN=C(C2=CC1OC)OC=3C=CC=4NC(=CC4C3)C,-3.5228787000000006
CCOQPGVQAWPUPE-UHFFFAOYSA-N,"Cyclohexanol, 4-(1,1-dimethylethyl)-",CC(C)(C)C1CCC(O)CC1,CC(C)(C)C1CCC(CC1)O,CC(C)(C)C1CCC(CC1)O,-3.181015141
CCQPAEQGAVNNIA-UHFFFAOYSA-N,carboplatin,O=C(O)C1(C(=O)O)CCC1,C1CC(C1)(C(=O)O)C(=O)O,C1CC(C1)(C(=O)O)C(=O)O,-1.4235384269999998
CCRCUPLGCSFEDV-UHFFFAOYSA-N,METHYL CINNAMATE;  Cinnamic acid methyl ester,COC(=O)/C=C/c1ccccc1,COC(=O)/C=C/c1ccccc1,COC(=O)/C=C/C=1C=CC=CC1,-2.702173765
CCTFAOUOYLVUFG-UHFFFAOYSA-N,"2,2'-diazene-1,2-diylbis(2-methylpropanimidamide) dihydrochloride",CC(C)(/N=N/C(C)(C)C(=N)N)C(=N)N,CC(C)(C(=N)N)/N=N/C(C)(C)C(=N)N,CC(C)(/N=N/C(C)(C)C(=N)N)C(=N)N,-0.1451
CCTHSALYFOIKCZ-UHFFFAOYSA-N,N-hydroxy-N-phenylfuran-2-carboxamide,O=C(c1ccco1)N(O)c1ccccc1,c1ccc(cc1)N(C(=O)c2ccco2)O,ON(C(=O)C=1OC=CC1)C=2C=CC=CC2,-3.194
CCVXDNAIZMJTKS-UHFFFAOYSA-N,,COc1cc2c(Nc3ccc(Oc4cccc(OCC(=O)NCC5CC5)c4)cc3)c(C#N)cnc2cc1OCCCN1CCCC1,COc1cc2c(cc1OCCCN3CCCC3)ncc(c2Nc4ccc(cc4)Oc5cccc(c5)OCC(=O)NCC6CC6)C#N,COC=1C=C2C(=C(C=NC2=CC1OCCCN3CCCC3)C#N)NC=4C=CC(=CC4)OC=5C=CC=C(C5)OCC(=O)NCC6CC6,-5.2146702000000005
CCWFWEPLHAAVHO-UHFFFAOYSA-N,Tutin,C=C(C)C12CC(C(=O)O1)C1(O)C3OC3C3(CO3)C1(C)C2O,CC(=C)C12CC(C(=O)O1)C3(C4C(O4)C5(C3(C2O)C)CO5)O,C12(C3(C(C4C(=O)OC(C3O)(C4)C(=C)C)(C5C1O5)O)C)OC2,-1.19
CDACFMJJRHUMNA-UHFFFAOYSA-N,"1(2H)-PYRIMIDINECARBOXAMIDE, 5-FLUORO-3,4-DIHYDR",CNC(=O)n1cc(F)c(=O)[nH]c1=O,CNC(=O)n1cc(c(=O)[nH]c1=O)F,N1(C(=O)NC(=O)C(=C1)F)C(=O)NC,-2.4799
CDAISMWEOUEBRE-UHFFFAOYSA-N,Scyllitol,OC1C(O)C(O)C(O)C(O)C1O,C1(C(C(C(C(C1O)O)O)O)O)O,OC1C(C(C(C(C1O)O)O)O)O,0.35
CDBAMNGURPMUTG-UHFFFAOYSA-N,4-[2-(4-hydroxycyclohexyl)propan-2-yl]cyclohexan-1-ol,CC(C)(C1CCC(O)CC1)C1CCC(O)CC1,CC(C)(C1CCC(CC1)O)C2CCC(CC2)O,CC(C)(C1CCC(CC1)O)C2CCC(CC2)O,-3.097804875
CDBXKLYOJGRINM-UHFFFAOYSA-N,2-[(3-nitrobenzoyl)amino]propanoic Acid,CC(NC(=O)c1cccc([N+](=O)[O-])c1)C(=O)O,CC(C(=O)O)NC(=O)c1cccc(c1)[N+](=O)[O-],CC(C(=O)O)NC(=O)C1=CC(=CC=C1)[N+](=O)[O-],-1.7975
CDCHDCWJMGXXRH-UHFFFAOYSA-N,estazolam,Clc1ccc2c(c1)C(c1ccccc1)=NCc1nncn1-2,c1ccc(cc1)C2=NCc3nncn3-c4c2cc(cc4)Cl,C1C2=NN=CN2C3=C(C=C(C=C3)Cl)C(=N1)C4=CC=CC=C4,-5.29334782
CDCMAMVXGZBIAX-UHFFFAOYSA-N,"N1-(3,4-DICHLOROPHENYL)SULFANILAMIDE;  3,4-Dichloro-1-sulfabenzene",Nc1ccc(S(=O)(=O)Nc2ccc(Cl)c(Cl)c2)cc1,c1cc(ccc1N)S(=O)(=O)Nc2ccc(c(c2)Cl)Cl,NC1=CC=C(C=C1)S(=O)(=O)NC2=CC=C(C(=C2)Cl)Cl,-4.94
CDCTYRNLXFEDHC-UHFFFAOYSA-N,DIETHYL 3-METHYL-5-PYRAZOLYL PHOSPHATE,CCOP(=O)(OCC)Oc1cc(C)[nH]n1,CCOP(=O)(OCC)Oc1cc([nH]n1)C,CCOP(=O)(OCC)OC=1C=C(NN1)C,-2.3698
CDFIVAJSDSUNMZ-UHFFFAOYSA-N,,O=[N+]([O-])c1ccc(NS(=O)(=O)c2ccc(-c3nc4ccccc4o3)cc2)nc1,c1ccc2c(c1)nc(o2)c3ccc(cc3)S(=O)(=O)Nc4ccc(cn4)[N+](=O)[O-],O=[N+]([O-])C=1C=CC(=NC1)NS(=O)(=O)C=2C=CC(=CC2)C3=NC=4C=CC=CC4O3,-5.468521099999999
CDFOWHVUXIHGJY-UHFFFAOYSA-N,,COc1cc2ncnc(Nc3ccc(F)c(Cl)c3)c2cc1OCCCNCCN1CCCCC1,COc1cc2c(cc1OCCCNCCN3CCCCC3)c(ncn2)Nc4ccc(c(c4)Cl)F,COC=1C=C2N=CN=C(C2=CC1OCCCNCCN3CCCCC3)NC=4C=CC(=C(C4)Cl)F,-3.0457575
CDINAQYMBJWKKQ-UHFFFAOYSA-N,"4-FLUORO-10-METHYL-1,2-BENZANTHRACENE",Cc1ccc2cc3ccc4c(F)cccc4c3cc2c1,Cc1ccc2cc3ccc4c(c3cc2c1)cccc4F,CC1=CC=C2C=C3C=CC4=C(C3=CC2=C1)C=CC=C4F,-7.72
CDKDZKXSXLNROY-UHFFFAOYSA-N,OCTYLBENZENE,CCCCCCCCc1ccccc1,CCCCCCCCc1ccccc1,CCCCCCCCC=1C=CC=CC1,-6.46
CDOBLNVGVNICNS-UHFFFAOYSA-N,,Cc1c(C)n(S(C)(=O)=O)c2ccc(NC(=O)N(C)CCc3ccncc3)cc12,Cc1c(n(c2c1cc(cc2)NC(=O)N(C)CCc3ccncc3)S(=O)(=O)C)C,CN(CCC=1C=CN=CC1)C(=O)NC=2C=CC=3N(C(=C(C3C2)C)C)S(=O)(=O)C,-4.0360583
CDOSHBSSFJOMGT-UHFFFAOYSA-N,Linalool,C=CC(C)(O)CCC=C(C)C,CC(=CCCC(C)(C=C)O)C,OC(C=C)(CCC=C(C)C)C,-1.98855
CDOZDBSBBXSXLB-UHFFFAOYSA-N,"N,N-diethyl-1-phenothiazin-10-ylpropan-2-amine",CCN(CC)C(C)CN1c2ccccc2Sc2ccccc21,CCN(CC)C(C)CN1c2ccccc2Sc3c1cccc3,N1(C2=C(C=CC=C2)SC3=C1C=CC=C3)CC(N(CC)CC)C,-2.145
CDPPYCZVWYZBJH-UHFFFAOYSA-N,"Butanedioic acid, tetramethyl-",CC(C)(C(=O)O)C(C)(C)C(=O)O,CC(C)(C(=O)O)C(C)(C)C(=O)O,C(C(C(=O)O)(C)C)(C(=O)O)(C)C,-1.56
CDQYPMBESFIYFO-UHFFFAOYSA-N,"2-(prop-1-en-1-yl)-2,3,3-tripropylbutanedioic acid",C/C=C/C(CCC)(C(=O)O)C(CCC)(CCC)C(=O)O,CCCC(CCC)(C(=O)O)C(CCC)(/C=C/C)C(=O)O,CCCC(CCC)(C(=O)O)C(CCC)(/C=C/C)C(=O)O,-3.4951798010000004
CDRGBVMLQYDQFR-UHFFFAOYSA-N,,CNC(=O)c1ccc(Nc2ccc3c(c2C)c2ccccc2n3C(C)C)nn1,Cc1c(ccc2c1c3ccccc3n2C(C)C)Nc4ccc(nn4)C(=O)NC,CNC(=O)C=1C=CC(=NN1)NC=2C=CC=3N(C=4C=CC=CC4C3C2C)C(C)C,-6.154902
CDRKGVPZPVMRGX-UHFFFAOYSA-N,,CNC(=O)C(C)(C)Oc1ccccc1Oc1ccc(Nc2c(C#N)cnc3cc(N(C)C)ncc23)cc1,CC(C)(C(=O)NC)Oc1ccccc1Oc2ccc(cc2)Nc3c(cnc4c3cnc(c4)N(C)C)C#N,CNC(=O)C(C)(C)OC=1C=CC=CC1OC=2C=CC(=CC2)NC=3C(=CN=C4C3C=NC(=C4)N(C)C)C#N,-7.154902000000001
CDTJSQNOOHANPR-UHFFFAOYSA-N,N-Hydroxy-N-methylcycloheptanecarboxamide,CN(O)C(=O)C1CCCCCC1,CN(C(=O)C1CCCCCC1)O,CN(O)C(=O)C1CCCCCC1,-1.4509999999999998
CDVNZMKTJIBBBV-UHFFFAOYSA-N,,Cc1c(C(=O)O)cc([N+](=O)[O-])cc1[N+](=O)[O-],Cc1c(cc(cc1[N+](=O)[O-])[N+](=O)[O-])C(=O)O,O=[N+]([O-])C=1C(=C(C=C(C1)[N+](=O)[O-])C(=O)O)C,-2.6
CDYKTFABNOULII-UHFFFAOYSA-N,"Salicylanilide, 4'-chloro-5-nitro-",O=C(Nc1ccc(Cl)cc1)c1cc([N+](=O)[O-])ccc1O,c1cc(ccc1NC(=O)c2cc(ccc2O)[N+](=O)[O-])Cl,OC=1C=CC(=CC1C(=O)NC=2C=CC(=CC2)Cl)[N+](=O)[O-],-5.122000000000001
CDYQHUASPWCFBY-UHFFFAOYSA-N,,COc1cc2ncnc(Nc3cccc(C)c3C)c2cc1OCCCN1CCOCC1,Cc1cccc(c1C)Nc2c3cc(c(cc3ncn2)OC)OCCCN4CCOCC4,COC=1C=C2N=CN=C(C2=CC1OCCCN3CCOCC3)NC=4C=CC=C(C4C)C,-3.5686362000000003
CEAKZVDHZILFGK-UHFFFAOYSA-N,"Pentanedioic acid, 2,4-diethyl-",CCC(CC(CC)C(=O)O)C(=O)O,CCC(CC(CC)C(=O)O)C(=O)O,C(=O)(C(CC(C(=O)O)CC)CC)O,-1.091
CEAZRRDELHUEMR-UHFFFAOYSA-N,gentamicin c1 sulfate,CN[C@H](C)[C@@H]1CC[C@@H](N)[C@@H](O[C@@H]2[C@@H](N)C[C@@H](N)[C@H](O[C@H]3OC[C@](C)(O)[C@H](NC)[C@H]3O)[C@H]2O)O1,C[C@H]([C@@H]1CC[C@H]([C@H](O1)O[C@@H]2[C@H](C[C@H]([C@@H]([C@H]2O)O[C@@H]3[C@@H]([C@H]([C@@](CO3)(C)O)NC)O)N)N)N)NC,C[C@H]([C@@H]1CC[C@H]([C@H](O1)O[C@@H]2[C@H](C[C@H]([C@@H]([C@H]2O)O[C@@H]3[C@@H]([C@H]([C@@](CO3)(C)O)NC)O)N)N)N)NC,-1.061203593
CECOUILACHKXQE-UHFFFAOYSA-N,,COc1nccc2c1cnn2-c1ccc(C(F)(F)F)cc1Cl,COc1c2cnn(c2ccn1)c3ccc(cc3Cl)C(F)(F)F,COC=1N=CC=C2C1C=NN2C=3C=CC(=CC3Cl)C(F)(F)F,-5.6777807000000005
CEEJSCAKNYSVHF-UHFFFAOYSA-N,"Phthalic acid, 4-nitro-, 1-methyl ester",COC(=O)c1ccc([N+](=O)[O-])cc1C(=O)O,COC(=O)c1ccc(cc1C(=O)O)[N+](=O)[O-],[N+](=O)(C=1C=C(C(=CC1)C(=O)OC)C(=O)O)[O-],-2.0559
CEFSTXHZRMBSEZ-UHFFFAOYSA-N,oxytetracycline,NC1CCC(/N=N/C2CCCCC2)C(N)N1,C1CCC(CC1)/N=N/C2CCC(NC2N)N,C1CCC(CC1)/N=N/C2CCC(NC2N)N,-3.088
CEINNGQDMFZTJK-UHFFFAOYSA-N,S-[2-oxo-2-(phenylamino)ethyl] aminomethanethioate,NC(=O)SCC(=O)Nc1ccccc1,c1ccc(cc1)NC(=O)CSC(=O)N,NC(=O)SCC(=O)NC=1C=CC=CC1,-1.3228
CELBABZQPNCMKC-UHFFFAOYSA-N,,CC(O)(C(=O)Nc1ccc(S(=O)(=O)C2CCCC2)c(N2CCNCC2)c1Cl)C(F)(F)F,CC(C(=O)Nc1ccc(c(c1Cl)N2CCNCC2)S(=O)(=O)C3CCCC3)(C(F)(F)F)O,CC(O)(C(=O)NC=1C=CC(=C(C1Cl)N2CCNCC2)S(=O)(=O)C3CCCC3)C(F)(F)F,-4.30103
CEMAWMOMDPGJMB-UHFFFAOYSA-N,oxprenolol,C=CCOc1ccccc1OCC(O)CNC(C)C,CC(C)NCC(COc1ccccc1OCC=C)O,O(CC(O)CNC(C)C)C1=CC=CC=C1OCC=C,-0.32
CENVPIZOTHULGJ-UHFFFAOYSA-N,"6-chloro-2,3-dihydro-1H-indol-2-one",O=C1Cc2ccc(Cl)cc2N1,c1cc2c(cc1Cl)NC(=O)C2,ClC=1C=CC2=C(C1)NC(=O)C2,-2.9689942769999997
CERPZOMXAGSAPS-UHFFFAOYSA-N,,COc1cc(CC(=O)NCCC2CCN(CC(=O)O)CC2)ccc1NC(=O)Nc1ccccc1C,Cc1ccccc1NC(=O)Nc2ccc(cc2OC)CC(=O)NCCC3CCN(CC3)CC(=O)O,COC=1C=C(C=CC1NC(=O)NC=2C=CC=CC2C)CC(=O)NCCC3CCN(CC3)CC(=O)O,-2.9208187999999997
CESKLHVYGRFMFP-UHFFFAOYSA-N,sulfonal,CCS(=O)(=O)C(C)(C)S(=O)(=O)CC,CCS(=O)(=O)C(C)(C)S(=O)(=O)CC,CCS(=O)(=O)C(C)(C)S(=O)(=O)CC,-1.9269999999999998
CESYKOGBSMNBPD-UHFFFAOYSA-N,Methyclothiazide,CN1C(CCl)Nc2cc(Cl)c(S(N)(=O)=O)cc2S1(=O)=O,CN1C(Nc2cc(c(cc2S1(=O)=O)S(=O)(=O)N)Cl)CCl,CN1C(NC2=CC(=C(C=C2S1(=O)=O)S(=O)(=O)N)Cl)CCl,-3.78
CEUJXOIQFOTTKI-UHFFFAOYSA-N,,O=C(O)c1c(OCc2ccccc2)c2ccccc2n1Cc1ccc(Cl)c(Cl)c1,c1ccc(cc1)COc2c3ccccc3n(c2C(=O)O)Cc4ccc(c(c4)Cl)Cl,OC(=O)C1=C(C=2C=CC=CC2N1CC=3C=CC(=C(C3)Cl)Cl)OCC=4C=CC=CC4,-5.5157002
CEUORZQYGODEFX-UHFFFAOYSA-N,aripiprazole,O=C1CCc2ccc(OCCCCN3CCN(c4cccc(Cl)c4Cl)CC3)cc2N1,c1cc(c(c(c1)Cl)Cl)N2CCN(CC2)CCCCOc3ccc4c(c3)NC(=O)CC4,C1CC(=O)NC2=C1C=CC(=C2)OCCCCN3CCN(CC3)C4=C(C(=CC=C4)Cl)Cl,-6.6516559179999994
CEXQWAAGPPNOQF-UHFFFAOYSA-N,2-phenoxyethyl 2-methylprop-2-enoate,C=C(C)C(=O)OCCOc1ccccc1,CC(=C)C(=O)OCCOc1ccccc1,CC(=C)C(=O)OCCOC=1C=CC=CC1,-2.952823585
CEZORWWRSFDIBL-UHFFFAOYSA-N,,O=C(O)c1cc2cc(Cl)ccc2n1Cc1ccc(F)c(F)c1,c1cc(c(cc1Cn2c3ccc(cc3cc2C(=O)O)Cl)F)F,OC(=O)C1=CC=2C=C(C=CC2N1CC=3C=CC(=C(C3)F)F)Cl,-2.8542692
CFBYEGUGFPZCNF-UHFFFAOYSA-N,o-Nitroanisole,COc1ccccc1[N+](=O)[O-],COc1ccccc1[N+](=O)[O-],O=[N+]([O-])C=1C(=CC=CC1)OC,-1.96
CFBZIYSASZKQLZ-UHFFFAOYSA-N,,COc1cc2ncc(C(N)=O)c(Nc3ccc(C(N)=O)cc3)c2cc1OC,COc1cc2c(cc1OC)ncc(c2Nc3ccc(cc3)C(=O)N)C(=O)N,COC=1C=C2N=CC(=C(C2=CC1OC)NC=3C=CC(=CC3)C(=O)N)C(=O)N,-5.1870866
CFCXQQUQLZIZPI-UHFFFAOYSA-N,"2-amino-3,5-dimethylbenzene-1-sulfonic acid",Cc1cc(C)c(N)c(S(=O)(=O)O)c1,Cc1cc(c(c(c1)S(=O)(=O)O)N)C,CC=1C=C(C(=C(C1)S(=O)(=O)O)N)C,-1.8197717519999999
CFCYEMMQXVMYQE-UHFFFAOYSA-N,"Furazan, di-2-furoyl-, monooxide",O=C(c1ccco1)c1no[n+]([O-])c1C(=O)c1ccco1,c1cc(oc1)C(=O)c2c([n+](on2)[O-])C(=O)c3ccco3,C1=COC(=C1)C(=O)C2=NO[N+](=C2C(=O)C3=CC=CO3)[O-],-3.8485
CFCYTEUETQNNHM-UHFFFAOYSA-N,1-cyclopropyl-6-fluoro-7-(2-methyl-3-methylaminoazetidin-1-yl)-4-oxoquinoline-3-carboxylic acid,CNC1CN(c2cc3c(cc2F)c(=O)c(C(=O)O)cn3C2CC2)C1C,CC1C(CN1c2cc3c(cc2F)c(=O)c(cn3C4CC4)C(=O)O)NC,CNC1CN(C1C)C2=CC3=C(C=C2F)C(=O)C(=CN3C4CC4)C(=O)O,-4.5715
CFDIRYSIEKJPRZ-UHFFFAOYSA-N,2-oxo-N-[4-({4-[(2-oxoazepane-1-carbonyl)amino]phenyl}methyl)phenyl]azepane-1-carboxamide,O=C1CCCCCN1C(=O)Nc1ccc(Cc2ccc(NC(=O)N3CCCCCC3=O)cc2)cc1,c1cc(ccc1Cc2ccc(cc2)NC(=O)N3CCCCCC3=O)NC(=O)N4CCCCCC4=O,O=C1CCCCCN1C(=O)NC=2C=CC(=CC2)CC=3C=CC(=CC3)NC(=O)N4CCCCCC4=O,-7.763130631
CFEUGIGSIREATC-UHFFFAOYSA-N,"1,3,7-TRICHLORONAPHTHALENE",Clc1cc(Cl)c2cc(Cl)ccc2c1,c1cc(cc2c1cc(cc2Cl)Cl)Cl,ClC=1C=CC=2C=C(C=C(C2C1)Cl)Cl,-6.55585
CFFQRHTWQPXZID-UHFFFAOYSA-N,"2-(hydroxymethyl)-6-(2-naphthalen-1-ylethoxy)oxane-3,4,5-triol",OCC1OC(OCCc2cccc3ccccc23)C(O)C(O)C1O,c1ccc2c(c1)cccc2CCOC3C(C(C(C(O3)CO)O)O)O,OCC1OC(C(C(C1O)O)O)OCCC2=C3C=CC=CC3=CC=C2,-1.1095
CFJCYCZBQGPOQK-UHFFFAOYSA-N,,COc1cc(Cn2c3ccccc3c(=O)c3ccc(CCN(C)C)cc32)cc(OC)c1O,CN(C)CCc1ccc2c(c1)n(c3ccccc3c2=O)Cc4cc(c(c(c4)OC)O)OC,COC=1C=C(C=C(C1O)OC)CN2C=3C=CC=CC3C(=O)C4=C2C=C(C=C4)CCN(C)C,-3.5702477
CFJYNSNXFXLKNS-UHFFFAOYSA-N,P-MENTHANE,CC1CCC(C(C)C)CC1,CC1CCC(CC1)C(C)C,CC1CCC(CC1)C(C)C,-5.6998
CFLKUNXNGFTVPE-UHFFFAOYSA-N,,COc1cc2ncnc(Nc3ccc(F)c(Cl)c3)c2cc1OCCCN1CCCC1CO,COc1cc2c(cc1OCCCN3CCCC3CO)c(ncn2)Nc4ccc(c(c4)Cl)F,COC=1C=C2N=CN=C(C2=CC1OCCCN3CCCC3CO)NC=4C=CC(=C(C4)Cl)F,-3.8486181000000004
CFNJLPHOBMVMNS-UHFFFAOYSA-N,PENTYL BUTYRATE,CCCCCOC(=O)CCC,CCCCCOC(=O)CCC,CCCCCOC(=O)CCC,-2.467
CFODPRKADBMMNE-UHFFFAOYSA-N,,COc1ccc(C2C/C=C\CC(c3ccc4c(c3)OCO4)NC(=O)C(c3ccccc3)CC(=O)N2)c(OC)c1,COc1ccc(c(c1)OC)C2C/C=C\CC(NC(=O)C(CC(=O)N2)c3ccccc3)c4ccc5c(c4)OCO5,COC1=CC=C(C(=C1)OC)C2C/C=C\CC(NC(=O)C(CC(=O)N2)C3=CC=CC=C3)C4=CC=C5C(=C4)OCO5,-6.1885
CFOHRWBARJOUIP-UHFFFAOYSA-N,"Spiro[benzofuran-2(3H), 1'-[2]cyclohexene]-3,4'-",CCCOC1=CC(=O)CC(C)C12Oc1c(Cl)c(OC)cc(OC)c1C2=O,CCCOC1=CC(=O)CC(C12C(=O)c3c(cc(c(c3O2)Cl)OC)OC)C,CCCOC1=CC(=O)CC(C12OC3=C(C(=CC(=C3Cl)OC)OC)C2=O)C,-4.522
CFPIGEXZPWTNOR-UHFFFAOYSA-N,4-CHLORO-1-NITRO-2(TRIFLUOROMETHYL)BENZENE,O=[N+]([O-])c1ccc(Cl)cc1C(F)(F)F,c1cc(c(cc1Cl)C(F)(F)F)[N+](=O)[O-],O=[N+]([O-])C=1C=CC(=CC1C(F)(F)F)Cl,-3.353
CFQBJNMCHQJYGC-UHFFFAOYSA-N,sarafloxacin,CC(=O)NS(=O)(=O)C1CCC(N)CC1,CC(=O)NS(=O)(=O)C1CCC(CC1)N,C(=O)(C)NS(=O)(=O)C1CCC(CC1)N,-3.133
CFRKSCYTXXLRNQ-UHFFFAOYSA-N,,CN1CCC(Oc2cccc3ncnc(Nc4ccc5c(cnn5Cc5cccc(F)c5)c4)c23)CC1,CN1CCC(CC1)Oc2cccc3c2c(ncn3)Nc4ccc5c(c4)cnn5Cc6cccc(c6)F,CN1CCC(CC1)OC=2C=CC=C3C2C(=NC=N3)NC=4C=CC=5N(N=CC5C4)CC=6C=CC=C(C6)F,-5.5850267
CFRPSFYHXJZSBI-UHFFFAOYSA-N,NITENPYRAM,CCN(Cc1ccc(Cl)nc1)/C(=C/[N+](=O)[O-])NC,CCN(Cc1ccc(nc1)Cl)/C(=C/[N+](=O)[O-])/NC,O=[N+]([O-])/C=C(\NC)/N(CC1=CN=C(C=C1)Cl)CC,0.4918
CFUIRDRWBUXKIU-UHFFFAOYSA-N,,CCCCNc1nc(SCCC)nc2c1nnn2C1CC(OCCCO)C(O)C1O,CCCCNc1c2c(nc(n1)SCCC)n(nn2)C3CC(C(C3O)O)OCCCO,CCCCNC=1N=C(N=C2C1N=NN2C3CC(C(C3O)O)OCCCO)SCCC,-4.945042
CFWGBJZZFKTWKZ-UHFFFAOYSA-N,,CCCC(C)C(=O)NC1CCc2c(c3ccccc3n2CC)C1,CCCC(C)C(=O)NC1CCc2c(c3ccccc3n2CC)C1,CCCC(C)C(=O)NC1CCC2=C(C=3C=CC=CC3N2CC)C1,-5.387216099999999
CFXHTONTAWFEIR-UHFFFAOYSA-N,1-(PROPOXYCARBONYL)THIABENDAZOLE,CCCOC(=O)n1c(-c2cscn2)nc2ccccc21,CCCOC(=O)n1c2ccccc2nc1c3cscn3,CCCOC(=O)N1C2=C(C=CC=C2)N=C1C3=CSC=N3,-3.52
CFZNXPSHLNMZGD-UHFFFAOYSA-N,"10,13-dimethyl-17-(2-methyl-1,3-dioxolan-2-yl)-1,2,4,9,10,11,12,13,14,15,16,17-dodecahydrospiro[cyclopenta[a]phenanthrene-3,2'-[1,3]dioxolane]",CC1(C2CCC3C4=CC=C5CC6(CCC5(C)C4CCC32C)OCCO6)OCCO1,CC12CCC3C(=CC=C4C3(CCC5(C4)OCCO5)C)C1CCC2C6(OCCO6)C,CC1(OCCO1)C2CCC3C2(CCC4C3=CC=C5C4(CCC6(C5)OCCO6)C)C,-6.7000598579999995
CGAONTKAHYNZSM-UHFFFAOYSA-N,"BENZENESULFONAMIDE, 4-[3-HYDROXY-3-METHYLBUTYL)S",CC(C)(O)CCS(=O)(=O)c1ccc(S(N)(=O)=O)cc1,CC(C)(CCS(=O)(=O)c1ccc(cc1)S(=O)(=O)N)O,S(=O)(=O)(C1=CC=C(C=C1)S(=O)(=O)CCC(O)(C)C)N,-1.944
CGBCCZZJVKUAMX-UHFFFAOYSA-N,Delmadinone_Acetate,CC(=O)OC1(C(C)=O)CCC2C3C=C(Cl)C4=CC(=O)C=CC4(C)C3CCC21C,CC(=O)C1(CCC2C1(CCC3C2C=C(C4=CC(=O)C=CC34C)Cl)C)OC(=O)C,O=C1C=C2C(=CC3C4CCC(C4(CCC3C2(C=C1)C)C)(C(=O)C)OC(=O)C)Cl,-4.95
CGCJBAIEQANINV-UHFFFAOYSA-N,"ETHANE, 1,1,1-TRICHLORO-2,2-DIETHOXY-",CCOC(OCC)C(Cl)(Cl)Cl,CCOC(C(Cl)(Cl)Cl)OCC,CCOC(OCC)C(Cl)(Cl)Cl,-1.6462
CGHWPLCKCYMCMQ-UHFFFAOYSA-N,,COc1cc2ncnc(Oc3cnc4[nH]c(C)cc4c3)c2cc1OCCCN1CCCC1,Cc1cc2cc(cnc2[nH]1)Oc3c4cc(c(cc4ncn3)OC)OCCCN5CCCC5,COC=1C=C2N=CN=C(C2=CC1OCCCN3CCCC3)OC=4C=NC=5NC(=CC5C4)C,-4.201349400000001
CGIGDMFJXJATDK-UHFFFAOYSA-N,Indomethacin,COc1ccc2c(c1)c(CC(=O)O)c(C)n2C(=O)c1ccc(Cl)cc1,Cc1c(c2cc(ccc2n1C(=O)c3ccc(cc3)Cl)OC)CC(=O)O,ClC1=CC=C(C=C1)C(=O)[N]2=C3=C(C(=C2C)CC(=O)O)C=C(C=C3)OC,-4.695