inchikey,Name,SMILES_stand,SMILES,kekSmiles,logS
AUJMVGRMAJNTDT-UHFFFAOYSA-N,,COCCOc1ccc(-c2cc(C(N)=O)c(NC(N)=O)s2)cc1Cl,COCCOc1ccc(cc1Cl)c2cc(c(s2)NC(=O)N)C(=O)N,COCCOC=1C=CC(=CC1Cl)C2=CC(=C(S2)NC(=O)N)C(=O)N,-4.3565473
AUJUNDKMTMFTHE-UHFFFAOYSA-N,,COc1cc2ncnc(Nc3ccc(F)c(Cl)c3)c2cc1C#CCN1CCCC1,COc1cc2c(cc1C#CCN3CCCC3)c(ncn2)Nc4ccc(c(c4)Cl)F,COC=1C=C2N=CN=C(C2=CC1C#CCN3CCCC3)NC=4C=CC(=C(C4)Cl)F,-4.5686362
AUKALMYOAHACET-UHFFFAOYSA-N,,Cc1ccc(NC(=O)c2cc(N3CCOCC3)cc(C(F)(F)F)c2)cc1NC(=O)c1cccc(OC2CCN(C)CC2)c1,Cc1ccc(cc1NC(=O)c2cccc(c2)OC3CCN(CC3)C)NC(=O)c4cc(cc(c4)N5CCOCC5)C(F)(F)F,CN1CCC(CC1)OC=2C=CC=C(C2)C(=O)NC=3C=C(C=CC3C)NC(=O)C=4C=C(C=C(C4)C(F)(F)F)N5CCOCC5,-4.721246400000001
AUKRYONWZHRJRE-UHFFFAOYSA-N,anthranol;  9-hydroxyanthracene;  9-anthracenol,Oc1c2ccccc2cc2ccccc12,c1ccc2c(c1)cc3ccccc3c2O,OC=1C=2C=CC=CC2C=C3C1C=CC=C3,-4.73
AULACELNXWKQIV-UHFFFAOYSA-N,Sodium 4-(4-(2-hydroxynaphthalenylazo)phenylazo)benzenesulphonate,O=C1C=Cc2ccccc2/C1=N/Nc1ccc(/N=N/c2ccc(S(=O)(=O)O)cc2)cc1,c1ccc\2c(c1)C=CC(=O)/C2=N\Nc3ccc(cc3)/N=N/c4ccc(cc4)S(=O)(=O)O,OS(=O)(=O)C=1C=CC(=CC1)/N=N/C=2C=CC(=CC2)N/N=C/3\C(=O)C=CC4=C3C=CC=C4,-4.65822083
AUNGANRZJHBGPY-UHFFFAOYSA-N,vitamin b2,Cc1cc2nc3c(=O)[nH]c(=O)nc-3n(C[C@H](O)[C@H](O)[C@H](O)CO)c2cc1C,Cc1cc2c(cc1C)n(c-3nc(=O)[nH]c(=O)c3n2)C[C@@H]([C@@H]([C@@H](CO)O)O)O,OC(CN1C2=C(N=C3C(=O)NC(=O)N=C13)C=C(C(=C2)C)C)C(O)C(O)CO,-3.6639999999999997
AUNHJVGFQWTEOA-UHFFFAOYSA-N,"2-chloro-6a,7,8,9-tetrahydro-5H-pyrrolo[2,1-c][1,4]benzodiazepine-6,11-dione",O=C1Nc2ccc(Cl)cc2C(=O)N2CCCC12,c1cc2c(cc1Cl)C(=O)N3CCCC3C(=O)N2,O=C1NC2=C(C=C(C=C2)Cl)C(=O)N3C1CCC3,-4.6995
AUNWUKQOQHWZSP-UHFFFAOYSA-N,,NC(=O)Nc1sc(-c2cnc(N3CCCCC3)nc2)cc1C(N)=O,c1c(c(sc1c2cnc(nc2)N3CCCCC3)NC(=O)N)C(=O)N,NC(=O)NC=1SC(=CC1C(=O)N)C=2C=NC(=NC2)N3CCCCC3,-5.19382
AUQAUAIUNJIIEP-UHFFFAOYSA-N,Landrin,CNC(=O)Oc1cc(C)c(C)c(C)c1,Cc1cc(cc(c1C)C)OC(=O)NC,C(=O)(OC=1C=C(C(=C(C1)C)C)C)NC,-1.985
AUQMMWHTCGFTOK-UHFFFAOYSA-N,,Cc1cc(Nc2nc(NCc3cccnc3)ncc2Cl)[nH]n1,Cc1cc([nH]n1)Nc2c(cnc(n2)NCc3cccnc3)Cl,CC=1C=C(NN1)NC=2N=C(N=CC2Cl)NCC=3C=CC=NC3,-4.5816987000000005
AUQZDGFOCLGNQD-UHFFFAOYSA-N,,C#CCN(c1ccc(C(=O)NCc2cccnc2)cc1)C1CCc2ccccc21,C#CCN(c1ccc(cc1)C(=O)NCc2cccnc2)C3CCc4c3cccc4,O=C(NCC=1C=CC=NC1)C=2C=CC(=CC2)N(CC#C)C3CCC4=C3C=CC=C4,-6.39794
AUTDTIFSMKGOTF-UHFFFAOYSA-N,,COc1cc(CC(=O)Nc2cncc(CCCCC(=O)O)c2)cc2oc(Nc3ccccc3)nc12,COc1cc(cc2c1nc(o2)Nc3ccccc3)CC(=O)Nc4cc(cnc4)CCCCC(=O)O,COC=1C=C(C=C2C1N=C(O2)NC=3C=CC=CC3)CC(=O)NC=4C=NC=C(C4)CCCCC(=O)O,-2.79588
AUVVAXYIELKVAI-UHFFFAOYSA-N,"6',7',10,11-Tetramethoxyemetan",CCC1CN2CCc3cc(OC)c(OC)cc3C2CC1CC1NCCc2cc(OC)c(OC)cc21,CCC1CN2CCc3cc(c(cc3C2CC1CC4c5cc(c(cc5CCN4)OC)OC)OC)OC,O(C1=CC2=C(C=C1OC)C(NCC2)CC3CC4C5=CC(=C(C=C5CCN4CC3CC)OC)OC)C,-2.6889999999999996
AUWIHANOTQAAAZ-UHFFFAOYSA-N,,CC(C)(O)c1ccccc1CCC(SCC1(CC(=O)O)CC1)c1cccc(/C=C/c2ccc3ccc(Cl)cc3c2)c1,CC(C)(c1ccccc1CCC(c2cccc(c2)/C=C/c3ccc4ccc(cc4c3)Cl)SCC5(CC5)CC(=O)O)O,OC(C)(C)C=1C=CC=CC1CCC(SCC2(CC2)CC(=O)O)C=3C=C(C=CC3)/C=C/C=4C=C5C=C(C=CC5=CC4)Cl,-5.847707700000001
AUYSZXGXDRJBMT-UHFFFAOYSA-N,,COc1cc2c(Nc3ccc(F)c(Cl)c3)ncnc2cc1NC(=O)C1CCN(C)CC1,CN1CCC(CC1)C(=O)Nc2cc3c(cc2OC)c(ncn3)Nc4ccc(c(c4)Cl)F,COC=1C=C2C(=NC=NC2=CC1NC(=O)C3CCN(CC3)C)NC=4C=CC(=C(C4)Cl)F,-4.79588
AUYUOHQABGMBSA-UHFFFAOYSA-N,8-methyl-8h-pteridin-7-one,Cn1c(=O)cnc2cncnc21,Cn1c(=O)cnc2c1ncnc2,N1(C2=C(C=NC=N2)N=CC1=O)C,-0.9089
AVBJHQDHVYGQLS-UHFFFAOYSA-N,sodium hydrogen (2S)-2-dodecanamidopentanedioate,CCCCCCCCCCCC(=O)N[C@@H](CCC(=O)O)C(=O)O,CCCCCCCCCCCC(=O)N[C@@H](CCC(=O)O)C(=O)O,CCCCCCCCCCCC(=O)N[C@@H](CCC(=O)O)C(=O)O,-3.609
AVCKOFMRPAJEPN-UHFFFAOYSA-N,1-(4-methoxyphenyl)-4-(4-nitrophenyl)piperazine,COc1ccc(N2CCN(c3ccc([N+](=O)[O-])cc3)CC2)cc1,COc1ccc(cc1)N2CCN(CC2)c3ccc(cc3)[N+](=O)[O-],COC=1C=CC(=CC1)N2CCN(CC2)C=3C=CC(=CC3)[N+](=O)[O-],-6.929006518
AVCSMMMOCOTIHF-UHFFFAOYSA-N,"NAPHTHALENE, 1,8-DINITRO-",O=[N+]([O-])c1cccc2cccc([N+](=O)[O-])c12,c1cc2cccc(c2c(c1)[N+](=O)[O-])[N+](=O)[O-],[N+](=O)(C1=C2C(=CC=CC2=CC=C1)[N+](=O)[O-])[O-],-3.807
AVESFRBKERIICX-UHFFFAOYSA-N,"N-benzyl-5-oxahexacyclo[5.4.1.0^{2,6}.0^{3,10}.0^{4,8}.0^{9,12}]dodecan-4-amine",c1ccc(CNC23OC4C5C6CC(C7C6C4C72)C53)cc1,c1ccc(cc1)CNC23C4C5CC6C4C(O2)C7C6C5C37,C1=CC=C(C=C1)CNC23OC4C5C2C6CC5C7C6C3C47,-3.3995
AVILRBCKQMQUJD-UHFFFAOYSA-N,,CCOC(=O)c1cc(C(=O)OCC)c(C(F)(F)F)nc1/C=C/N(C)C,CCOC(=O)c1cc(c(nc1/C=C/N(C)C)C(F)(F)F)C(=O)OCC,CCOC(=O)C=1C=C(C(=NC1/C=C/N(C)C)C(F)(F)F)C(=O)OCC,-4.8860566
AVIMORVYFHEESG-UHFFFAOYSA-N,,CCCCNc1nc(SCCC)nc2c1nnn2C1CC(C(=O)NCc2ccc(CO)cc2)C(O)C1O,CCCCNc1c2c(nc(n1)SCCC)n(nn2)C3CC(C(C3O)O)C(=O)NCc4ccc(cc4)CO,OCC=1C=CC(=CC1)CNC(=O)C2CC(C(C2O)O)N3N=NC=4C3=NC(=NC4NCCCC)SCCC,-6.114406
AVKGMHBGTXVXNI-UHFFFAOYSA-N,,COc1cc2c(Nc3cnc(OCCC4CC4)nc3)ncnc2cc1OCCCN1CCCCC1,COc1cc2c(cc1OCCCN3CCCCC3)ncnc2Nc4cnc(nc4)OCCC5CC5,COC=1C=C2C(=NC=NC2=CC1OCCCN3CCCCC3)NC=4C=NC(=NC4)OCCC5CC5,-3.09691
AVKGWXGSJRJBHL-UHFFFAOYSA-N,,CC(C)n1c2ccccc2c2cc(NC(=O)N3CCOCC3)ccc21,CC(C)n1c2ccccc2c3c1ccc(c3)NC(=O)N4CCOCC4,CC(C)N1C=2C=CC=CC2C3=C1C=CC(=C3)NC(=O)N4CCOCC4,-5.4202164
AVKUERGKIZMTKX-UHFFFAOYSA-N,ampicillin sodium,CC1(C)S[C@@H]2[C@H](NC(=O)[C@H](N)c3ccccc3)C(=O)N2[C@H]1C(=O)O,CC1([C@@H](N2[C@H](S1)[C@@H](C2=O)NC(=O)[C@@H](c3ccccc3)N)C(=O)O)C,S1C(C(N2C1C(C2=O)NC(=O)C(C3=CC=CC=C3)N)C(=O)O)(C)C,-1.5390000000000001
AVLBPBJAAQQHAC-UHFFFAOYSA-N,,O=C(COc1ccc(SCCCCCc2ccco2)cc1)COc1ccc(C(=O)O)cc1,c1cc(oc1)CCCCCSc2ccc(cc2)OCC(=O)COc3ccc(cc3)C(=O)O,C(SC=1C=CC(=CC1)OCC(=O)COC=2C=CC(=CC2)C(=O)O)CCCCC3=CC=CO3,-4.7490879999999995
AVLFDGGQEPKMJV-UHFFFAOYSA-O,,CS(=O)(=O)Nc1cc2c(O)n(-c3ccc(Cl)cc3)n[n+]2c2ccccc12,CS(=O)(=O)Nc1cc2c(n(n[n+]2c3c1cccc3)c4ccc(cc4)Cl)O,CS(=O)(=O)NC1=CC2=C(N(N=[N+]2C3=C1C=CC=C3)C=4C=CC(=CC4)Cl)O,-5.4859594000000005
AVMBPXPHGAYIDF-UHFFFAOYSA-N,,N#Cc1ccc(C(=O)NCCOc2cccc3cnccc23)cc1,c1cc2cnccc2c(c1)OCCNC(=O)c3ccc(cc3)C#N,O=C(NCCOC=1C=CC=C2C1C=CN=C2)C=3C=CC(=CC3)C#N,-4.721246400000001
AVOLBYOSCILFLL-UHFFFAOYSA-N,"O2-butyl O1-(2-ethylhexyl) benzene-1,2-dicarboxylate",CCCCOC(=O)c1ccccc1C(=O)OCC(CC)CCCC,CCCCC(CC)COC(=O)c1ccccc1C(=O)OCCCC,CCCCOC(=O)C1=C(C=CC=C1)C(=O)OCC(CC)CCCC,-7.2215
AVOLMBLBETYQHX-UHFFFAOYSA-N,ethacrynic acid,C=C(CC)C(=O)c1ccc(OCC(=O)O)c(Cl)c1Cl,CCC(=C)C(=O)c1ccc(c(c1Cl)Cl)OCC(=O)O,CCC(=C)C(=O)C1=C(C(=C(C=C1)OCC(=O)O)Cl)Cl,-4.193841516
AVOQDBLSHMVAMW-UHFFFAOYSA-N,5-ETHYL-5-(2-ETHYL-1-CYCLOHEXYLIDEN-1-YL)BARBITURIC  ACID,CCC1=C(C2(CC)C(=O)NC(=O)NC2=O)CCCC1,CCC1=C(CCCC1)C2(C(=O)NC(=O)NC2=O)CC,CCC1=C(CCCC1)C2(C(=O)NC(=O)NC2=O)CC,-3.53
AVRRPPRQHZAWOD-UHFFFAOYSA-N,,O=CN(O)C(CCc1ncccn1)CS(=O)(=O)N1CCN(c2ccc(C(F)(F)F)cn2)CC1,c1cnc(nc1)CCC(CS(=O)(=O)N2CCN(CC2)c3ccc(cn3)C(F)(F)F)N(C=O)O,ON(C=O)C(CCC=1N=CC=CN1)CS(=O)(=O)N2CCN(CC2)C=3C=CC(=CN3)C(F)(F)F,-3.0477691000000005
AVSXNTHBEJCKKV-UHFFFAOYSA-N,,COc1cc2ncnc(Nc3ccc(Cl)cc3F)c2cc1OCCCN1CCOCC1,COc1cc2c(cc1OCCCN3CCOCC3)c(ncn2)Nc4ccc(cc4F)Cl,COC=1C=C2N=CN=C(C2=CC1OCCCN3CCOCC3)NC=4C=CC(=CC4F)Cl,-4.920818799999999
AVTLBBWTUPQRAY-UHFFFAOYSA-N,2-[(E)-2-(1-cyano-1-methylpropyl)diazen-1-yl]-2-methylbutanenitrile,CCC(C)(C#N)/N=N/C(C)(C#N)CC,CCC(C)(C#N)/N=N/C(C)(CC)C#N,CCC(C)(/N=N/C(C)(CC)C#N)C#N,-2.696095763
AVWFAACIXBQMBF-UHFFFAOYSA-O,sodium 1-benzylpyridin-1-ium-3-carboxylate chloride,O=C(O)c1ccc[n+](Cc2ccccc2)c1,c1ccc(cc1)C[n+]2cccc(c2)C(=O)O,OC(=O)C=1C=CC=[N+](C1)CC=2C=CC=CC2,0.5192101339999999
AVWVZZWNUFDJTN-UHFFFAOYSA-N,,CS(=O)(=O)CC(O)C(=O)N1CC=C(c2c(F)cc(N3CC(COc4ccon4)OC3=O)cc2F)CC1,CS(=O)(=O)CC(C(=O)N1CCC(=CC1)c2c(cc(cc2F)N3CC(OC3=O)COc4ccon4)F)O,CS(=O)(=O)CC(O)C(=O)N1CCC(=CC1)C=2C(=CC(=CC2F)N3CC(OC3=O)COC=4C=CON4)F,-4.8239087
AVWWFEYZVUDIJU-UHFFFAOYSA-N,,CN1CCN(CCOc2ccc(Nc3ncc(Br)c(Nc4ccccc4)n3)cc2)CC1,CN1CCN(CC1)CCOc2ccc(cc2)Nc3ncc(c(n3)Nc4ccccc4)Br,CN1CCN(CC1)CCOC=2C=CC(=CC2)NC=3N=CC(=C(N3)NC=4C=CC=CC4)Br,-3.853872
AVZGRVCEWBPUNN-UHFFFAOYSA-N,"2-hydroxy-1-{3-[4-(2-hydroxy-2-methylpropanoyl)phenyl]-1,1,3-trimethyl-2,3-dihydro-1H-inden-5-yl}-2-methylpropan-1-one",CC(C)(O)C(=O)c1ccc(C2(C)CC(C)(C)c3ccc(C(=O)C(C)(C)O)cc32)cc1,CC1(CC(c2c1ccc(c2)C(=O)C(C)(C)O)(C)c3ccc(cc3)C(=O)C(C)(C)O)C,CC(C)(O)C(=O)C=1C=CC(=CC1)C2(CC(C3=C2C=C(C=C3)C(=O)C(C)(C)O)(C)C)C,-5.963924744
AVZVLGDSSQKRGL-UHFFFAOYSA-N,n-(benzoyloxyacetyl)morpholine,O=C(OCC(=O)N1CCOCC1)c1ccccc1,c1ccc(cc1)C(=O)OCC(=O)N2CCOCC2,O=C(OCC(=O)N1CCOCC1)C2=CC=CC=C2,-1.7730000000000001
AWAQUVZKSIXTRR-UHFFFAOYSA-N,"Propanoic acid, 2-amino-3-(4-chlorobenzenesulfon",NC(CS(=O)(=O)c1ccc(Cl)cc1)C(=O)O,c1cc(ccc1S(=O)(=O)CC(C(=O)O)N)Cl,S(=O)(=O)(CC(C(=O)O)N)C1=CC=C(C=C1)Cl,-2.532
AWDNDZUTFDHFBA-UHFFFAOYSA-N,,O=C1COc2cc(Sc3ccc(O)cc3)ccc2N1,c1cc(ccc1O)Sc2ccc3c(c2)OCC(=O)N3,OC=1C=CC(=CC1)SC=2C=CC3=C(C2)OCC(=O)N3,-4.6458916
AWDYZLGQTRYRJA-UHFFFAOYSA-N,Isopropyl (1-(4-chloro)phenylsulfonyl) cyclopent,CC(C)OC(=O)C1(S(=O)(=O)c2ccc(Cl)cc2)CCCC1,CC(C)OC(=O)C1(CCCC1)S(=O)(=O)c2ccc(cc2)Cl,S(=O)(=O)(C1(CCCC1)C(=O)OC(C)C)C=2C=CC(=CC2)Cl,-4.65
AWGLAUWEPCJYFC-UHFFFAOYSA-N,,Fc1cnccc1N1CCC(Oc2ccc(C(F)(F)F)cn2)C1,c1cc(ncc1C(F)(F)F)OC2CCN(C2)c3ccncc3F,FC=1C=NC=CC1N2CCC(C2)OC=3C=CC(=CN3)C(F)(F)F,-4.242604
AWIJHWDEWAIVTF-UHFFFAOYSA-N,,COc1cc2c(Oc3ccc4[nH]c(C)cc4c3)ncnc2cc1OCC1CCN(C)CC1,Cc1cc2cc(ccc2[nH]1)Oc3c4cc(c(cc4ncn3)OCC5CCN(CC5)C)OC,COC=1C=C2C(=NC=NC2=CC1OCC3CCN(CC3)C)OC=4C=CC=5NC(=CC5C4)C,-4.0111382
AWIJPALBOQNRBS-UHFFFAOYSA-N,7-Methoxypteridine,COc1cnc2ncncc2n1,COc1cnc2c(n1)cncn2,O(C1=NC=2C(N=C1)=NC=NC2)C,-1.139
AWJRUIZRYJPUHU-UHFFFAOYSA-N,"3-Pyridinesulfonamide, 6-hydroxy-",NS(=O)(=O)c1ccc(O)nc1,c1cc(ncc1S(=O)(=O)N)O,S(=O)(=O)(C=1C=NC(=CC1)O)N,-1.8430000000000002
AWJUIBRHMBBTKR-UHFFFAOYSA-N,Isoquinoline,c1ccc2cnccc2c1,c1ccc2cnccc2c1,C=1C=CC=2C=NC=CC2C1,-1.453
AWKKEGPILQDFJR-UHFFFAOYSA-N,,CCn1c2ccccc2c2cc(NC(=O)c3ccccc3)ccc21,CCn1c2ccccc2c3c1ccc(c3)NC(=O)c4ccccc4,CCN1C=2C=CC=CC2C3=C1C=CC(=C3)NC(=O)C=4C=CC=CC4,-6.6575773
AWLYFUAYQBVKPP-UHFFFAOYSA-N,,N#Cc1cccc(C(=O)NCCCOCc2ccccc2F)c1,c1ccc(c(c1)COCCCNC(=O)c2cccc(c2)C#N)F,FC=1C=CC=CC1COCCCNC(=O)C=2C=CC=C(C2)C#N,-3.1249387000000004
AWMCMKMIZOHANA-UHFFFAOYSA-N,,O=C(Nc1nncs1)c1ccc(Oc2ccccc2)cc1,c1ccc(cc1)Oc2ccc(cc2)C(=O)Nc3nncs3,O=C(NC1=NN=CS1)C=2C=CC(=CC2)OC=3C=CC=CC3,-5.6382722
AWOONWNTJFQRIM-UHFFFAOYSA-N,Papaverine,CCC1(C2CCCCC2)C(=O)NC(=O)NC1=O,CCC1(C(=O)NC(=O)NC1=O)C2CCCCC2,C1(=O)NC(=O)C(C(=O)N1)(C2CCCCC2)CC,-3.867
AWOPOGMEMRZDQH-UHFFFAOYSA-N,"Benzenamine, N-ethyl-N,2,4,6-tetranitro-",CCN(c1c([N+](=O)[O-])cc([N+](=O)[O-])cc1[N+](=O)[O-])[N+](=O)[O-],CCN(c1c(cc(cc1[N+](=O)[O-])[N+](=O)[O-])[N+](=O)[O-])[N+](=O)[O-],CCN(C=1C(=CC(=CC1[N+](=O)[O-])[N+](=O)[O-])[N+](=O)[O-])[N+](=O)[O-],-3.70085
AWRNWLYWQPIEDM-UHFFFAOYSA-N,"DL-Alanine, N-(2-chlorophenyl)-",CC(Nc1ccccc1Cl)C(=O)O,CC(C(=O)O)Nc1ccccc1Cl,N(C=1C(=CC=CC1)Cl)C(C(=O)O)C,-2.32705
AWSZRJQNBMEZOI-UHFFFAOYSA-N,,COCCOC(=O)C(C#N)(C(=O)c1ccccc1C(F)(F)F)c1ccc(C(C)(C)C)cc1,CC(C)(C)c1ccc(cc1)C(C#N)(C(=O)c2ccccc2C(F)(F)F)C(=O)OCCOC,FC(F)(F)C1=CC=CC=C1C(=O)C(C#N)(C2=CC=C(C=C2)C(C)(C)C)C(=O)OCCOC,-7.202000000000001
AWTKDKXDACFEHT-UHFFFAOYSA-N,,COc1cc(OC2CCN(C)CC2)c2c(Nc3cccc4c(Cl)cccc34)ncnc2c1,CN1CCC(CC1)Oc2cc(cc3c2c(ncn3)Nc4cccc5c4cccc5Cl)OC,COC=1C=C(C=2C(=NC=NC2C1)NC=3C=CC=C4C3C=CC=C4Cl)OC5CCN(CC5)C,-5.8239087
AWYOMXWDGWUJHS-UHFFFAOYSA-N,Tebupirimfos,CCOP(=S)(Oc1cnc(C(C)(C)C)nc1)OC(C)C,CCOP(=S)(Oc1cnc(nc1)C(C)(C)C)OC(C)C,CCOP(=S)(OC(C)C)OC=1C=NC(=NC1)C(C)(C)C,-4.7628
AWZKNOIBAIKXRQ-UHFFFAOYSA-N,"3-(1,3-Dimethylbutoxy)propane-1,2-diol",CC(C)CC(C)OCC(O)CO,CC(C)CC(C)OCC(CO)O,O(CC(O)CO)C(CC(C)C)C,-1.25
AWZMTWHHQXOWQR-UHFFFAOYSA-N,,CCc1cc(OCc2ccc(-c3ccccc3-c3nnn[nH]3)cc2)c2c(n1)CCCC2,CCc1cc(c2c(n1)CCCC2)OCc3ccc(cc3)c4ccccc4c5[nH]nnn5,CCC=1C=C(C2=C(N1)CCCC2)OCC=3C=CC(=CC3)C=4C=CC=CC4C5=NN=NN5,-4.597263099999999
AWZOLILCOUMRDG-UHFFFAOYSA-N,Edifenphos,CCOP(=O)(Sc1ccccc1)Sc1ccccc1,CCOP(=O)(Sc1ccccc1)Sc2ccccc2,P(=O)(SC=1C=CC=CC1)(SC2=CC=CC=C2)OCC,-3.3310000000000004
AWZYTDJQXDRQJA-UHFFFAOYSA-N,,COc1cc2c(Nc3ccc(NC(=O)c4ccccc4)cc3)ncnc2cc1OCCN1CCCCC1,COc1cc2c(cc1OCCN3CCCCC3)ncnc2Nc4ccc(cc4)NC(=O)c5ccccc5,COC=1C=C2C(=NC=NC2=CC1OCCN3CCCCC3)NC=4C=CC(=CC4)NC(=O)C=5C=CC=CC5,-3.6382722000000003
AXAMLHJXUICVAY-UHFFFAOYSA-N,2-(benzoylamino)-2-methylpropanoic acid,CC(C)(NC(=O)c1ccccc1)C(=O)O,CC(C)(C(=O)O)NC(=O)c1ccccc1,CC(C)(NC(=O)C1=CC=CC=C1)C(=O)O,-0.7609999999999999
AXCNQGVLKWZBAP-UHFFFAOYSA-N,,Cc1cc(CC(=O)N(C2CC2)C2CCN(CCC(c3ccccc3)c3ccccc3)CC2)on1,Cc1cc(on1)CC(=O)N(C2CC2)C3CCN(CC3)CCC(c4ccccc4)c5ccccc5,CC=1C=C(ON1)CC(=O)N(C2CC2)C3CCN(CC3)CCC(C=4C=CC=CC4)C=5C=CC=CC5,-3.3187587999999995
AXDLCFOOGCNDST-UHFFFAOYSA-N,"L-Tyrosine, N-methyl-",CN[C@@H](Cc1ccc(O)cc1)C(=O)O,CN[C@@H](Cc1ccc(cc1)O)C(=O)O,CN[C@@H](CC=1C=CC(=CC1)O)C(=O)O,-2.1319999999999997
AXGUBXVWZBFQGA-UHFFFAOYSA-N,"isopropyl-4,4'-dichlorobenzilate",CC(C)OC(=O)C(O)(c1ccc(Cl)cc1)c1ccc(Cl)cc1,CC(C)OC(=O)C(c1ccc(cc1)Cl)(c2ccc(cc2)Cl)O,O=C(OC(C)C)C(C1=CC=C(C=C1)Cl)(O)C2=CC=C(C=C2)Cl,-4.53
AXHGKAOXRWHBIF-UHFFFAOYSA-N,4-(ETHOXYCARBOXY)ACETANILIDE,CCOC(=O)Oc1ccc(NC(C)=O)cc1,CCOC(=O)Oc1ccc(cc1)NC(=O)C,CCOC(=O)OC1=CC=C(C=C1)NC(=O)C,-2.668
AXISYYRBXTVTFY-UHFFFAOYSA-N,propan-2-yl tetradecanoate,CCCCCCCCCCCCCC(=O)OC(C)C,CCCCCCCCCCCCCC(=O)OC(C)C,CCCCCCCCCCCCCC(=O)OC(C)C,-7.009564111
AXLDBUNZOQCPKR-UHFFFAOYSA-N,,N#Cc1ccc(CC(=O)Nc2ccc3[nH]ncc3c2)cc1Cl,c1cc(c(cc1CC(=O)Nc2ccc3c(c2)cn[nH]3)Cl)C#N,ClC=1C=C(C=CC1C#N)CC(=O)NC=2C=CC=3NN=CC3C2,-5.2596373
AXMKZEOEXSKFJI-UHFFFAOYSA-N,3-Hydroxycamphor,CC12CCC(C(O)C1=O)C2(C)C,CC1(C2CCC1(C(=O)C2O)C)C,CC1(C2CCC1(C(=O)C2O)C)C,-0.9249
AXMPFOXRWZXZFA-UHFFFAOYSA-N,n-Heptyl_Carbamate,CCCCCCCOC(N)=O,CCCCCCCOC(=O)N,NC(=O)OCCCCCCC,-2.62
AXMTWLLAZCBOFV-UHFFFAOYSA-N,,COc1ccc(Oc2nc(Nc3ccc(C(=O)NCCCN4CCOCC4)cc3)ncc2Br)cc1,COc1ccc(cc1)Oc2c(cnc(n2)Nc3ccc(cc3)C(=O)NCCCN4CCOCC4)Br,COC=1C=CC(=CC1)OC=2N=C(N=CC2Br)NC=3C=CC(=CC3)C(=O)NCCCN4CCOCC4,-5.4317983
AXNXBYAMXGSWLR-UHFFFAOYSA-N,Methyl (1-phenylsulfonyl) cyclopentane carboxyla,COC(=O)C1(S(=O)(=O)c2ccccc2)CCCC1,COC(=O)C1(CCCC1)S(=O)(=O)c2ccccc2,S(=O)(=O)(C1(CCCC1)C(=O)OC)C=2C=CC=CC2,-2.55
AXQXULMWLOKMNX-UHFFFAOYSA-N,,CN(C)CC(O)COc1ccc(Nc2ncc(Br)c(Nc3ccc4[nH]ncc4c3)n2)cc1,CN(C)CC(COc1ccc(cc1)Nc2ncc(c(n2)Nc3ccc4c(c3)cn[nH]4)Br)O,CN(C)CC(O)COC=1C=CC(=CC1)NC=2N=CC(=C(N2)NC=3C=CC=4NN=CC4C3)Br,-4.721246400000001
AXTDBYUDYKLOCG-UHFFFAOYSA-N,,COc1cc(OC)c2c(Nc3ccc(Oc4ccccc4OC)cc3)c(C#N)cnc2c1,COc1ccccc1Oc2ccc(cc2)Nc3c(cnc4c3c(cc(c4)OC)OC)C#N,COC=1C=C(C=2C(=C(C=NC2C1)C#N)NC=3C=CC(=CC3)OC=4C=CC=CC4OC)OC,-6.6575773
AXURSAQTBIXUTE-UHFFFAOYSA-N,N-carbamoyl-L-isoleucine,CCC(C)C(NC(N)=O)C(=O)O,CCC(C)C(C(=O)O)NC(=O)N,O=C(NC(C(=O)O)C(CC)C)N,-2.095
AXVJVVMTQUULRY-UHFFFAOYSA-N,Ciprofloxacin,CN1CCN(C2CC3C(CC2F)C(=O)C(C(=O)O)=CN3C2CCC(F)CC2)CC1,CN1CCN(CC1)C2CC3C(CC2F)C(=O)C(=CN3C4CCC(CC4)F)C(=O)O,CN1CCN(CC1)C2CC3C(CC2F)C(=O)C(=CN3C4CCC(CC4)F)C(=O)O,-3.596
AXWKCWDGLWVCLQ-UHFFFAOYSA-N,Halosulfuron-methyl,COC(=O)C1=C(Cl)NN(C)C1S(=O)(=O)NC(=O)Nc1nc(OC)cc(OC)n1,CN1C(C(=C(N1)Cl)C(=O)OC)S(=O)(=O)NC(=O)Nc2nc(cc(n2)OC)OC,COC(=O)C1=C(NN(C1S(=O)(=O)NC(=O)NC2=NC(=CC(=N2)OC)OC)C)Cl,-4.4639999999999995
AXXGBXUAFMEEMQ-UHFFFAOYSA-N,"Alanine, N-(2-bromo-3-methylbutyryl)-, DL-",CC(NC(=O)C(Br)C(C)C)C(=O)O,CC(C)C(C(=O)NC(C)C(=O)O)Br,CC(C)C(Br)C(=O)NC(C)C(=O)O,-0.4825
AXXSGOUYJMRDBJ-UHFFFAOYSA-N,,NC(=O)Nc1sc(-c2ccoc2)cc1C(N)=O,c1cocc1c2cc(c(s2)NC(=O)N)C(=O)N,NC(=O)NC=1SC(=CC1C(=O)N)C=2C=COC2,-3.60206
AXYOIAYIGMFQML-UHFFFAOYSA-N,,O=C(C1CCN(c2ccncn2)CC1)N1CCN(S(=O)(=O)c2ccc3cc(Cl)ccc3c2)CC1,c1cc(cc2c1cc(cc2)Cl)S(=O)(=O)N3CCN(CC3)C(=O)C4CCN(CC4)c5ccncn5,ClC=1C=CC=2C=C(C=CC2C1)S(=O)(=O)N3CCN(CC3)C(=O)C4CCN(CC4)C=5C=CN=CN5,-6.0135207
AXZJRZIFYWZNBC-UHFFFAOYSA-N,,CC(O)(C(=O)Nc1ccc(S(=O)(=O)N2CCC(O)CC2)cc1F)C(F)(F)F,CC(C(=O)Nc1ccc(cc1F)S(=O)(=O)N2CCC(CC2)O)(C(F)(F)F)O,CC(O)(C(=O)NC=1C=CC(=CC1F)S(=O)(=O)N2CCC(CC2)O)C(F)(F)F,-3.2218487000000002
AYARGAAVUXXAON-UHFFFAOYSA-N,"1,3,5-Benzenetricarboxylic acid, 2-hydroxy-",O=C(O)c1cc(C(=O)O)c(O)c(C(=O)O)c1,c1c(cc(c(c1C(=O)O)O)C(=O)O)C(=O)O,C1(=C(C(=CC(=C1)C(=O)O)C(=O)O)O)C(=O)O,-1.655
AYBALPYBYZFKDS-UHFFFAOYSA-N,"fenitropan;  volparox;  1,3-diacetoxy-2-nitro-1-phenylpropane (1rs,2rs)",CC(=O)OC[C@H]([C@@H](OC(C)=O)c1ccccc1)[N+](=O)[O-],CC(=O)OC[C@H]([C@H](c1ccccc1)OC(=O)C)[N+](=O)[O-],[N+](=O)(C(C(OC(=O)C)C1=CC=CC=C1)COC(=O)C)[O-],-3.972
AYBPVBIECBJCFC-UHFFFAOYSA-N,,O=S1(=O)Nc2ccc(Cl)cc2-c2ccccc21,c1ccc2c(c1)-c3cc(ccc3NS2(=O)=O)Cl,ClC=1C=CC2=C(C1)C3=C(C=CC=C3)S(=O)(=O)N2,-2.79588
AYCPMTVQGVLXOL-UHFFFAOYSA-N,,COc1cc2ncnc(Nc3nc(CC(=O)N4CCOCC4)cs3)c2cc1OC,COc1cc2c(cc1OC)ncnc2Nc3nc(cs3)CC(=O)N4CCOCC4,COC=1C=C2N=CN=C(C2=CC1OC)NC3=NC(=CS3)CC(=O)N4CCOCC4,-4.7447275
AYDFPRRFARMWED-UHFFFAOYSA-N,,CC(C)NCC(O)COc1ccc(Cl)c2ccccc12,CC(C)NCC(COc1ccc(c2c1cccc2)Cl)O,CC(C)NCC(O)COC=1C=CC(=C2C1C=CC=C2)Cl,-2.6197888
AYDSRTOQOAEVFS-UHFFFAOYSA-N,,COc1cc2ncnc(Oc3ccc(F)c(Cl)c3)c2cc1OCCCN1CCOCC1,COc1cc2c(cc1OCCCN3CCOCC3)c(ncn2)Oc4ccc(c(c4)Cl)F,COC=1C=C2N=CN=C(C2=CC1OCCCN3CCOCC3)OC=4C=CC(=C(C4)Cl)F,-4.1870866
AYGHCUGJLPYBBO-UHFFFAOYSA-N,,Cc1ccc(NC(=O)c2ccnc(N3CCCC(CO)C3)c2)cc1NC(=O)c1cccc(CN2CCN(C)CC2)c1,Cc1ccc(cc1NC(=O)c2cccc(c2)CN3CCN(CC3)C)NC(=O)c4ccnc(c4)N5CCCC(C5)CO,CN1CCN(CC1)CC=2C=CC=C(C2)C(=O)NC=3C=C(C=CC3C)NC(=O)C=4C=CN=C(C4)N5CCCC(C5)CO,-2.9208187999999997
AYIRNRDRBQJXIF-UHFFFAOYSA-N,,CS(=O)(=O)c1ccc(C(O)C(CF)NC(=O)C(Cl)Cl)cc1,CS(=O)(=O)c1ccc(cc1)C(C(CF)NC(=O)C(Cl)Cl)O,C1=CC(=CC=C1S(=O)(=O)C)C(C(CF)NC(=O)C(Cl)Cl)O,-2.434
AYIZSDKIAHUHIW-UHFFFAOYSA-N,,COc1ccc2c(c1)C(NC(=O)OCCCN1CCN(C(C)=O)CC1)CCc1cc(OC)c(OC)c(OC)c1-2,CC(=O)N1CCN(CC1)CCCOC(=O)NC2CCc3cc(c(c(c3-c4c2cc(cc4)OC)OC)OC)OC,COC=1C=CC2=C(C1)C(CCC=3C2=C(C(=C(C3)OC)OC)OC)NC(=O)OCCCN4CCN(CC4)C(=O)C,-2.636388
AYJXHIDNNLJQDT-UHFFFAOYSA-N,"2,6,6-Trimethylcyclohex-2-ene-1,4-dione",CC1=CC(=O)CC(C)(C)C1=O,CC1=CC(=O)CC(C1=O)(C)C,CC1=CC(=O)CC(C1=O)(C)C,-0.877902075
AYKFHXBCECSMQK-UHFFFAOYSA-N,,CSCCC(NC(=O)c1sc(/C=C/Cn2ccnc2)cc1-c1ccc(F)cc1)C(=O)OC1CCN(C)CC1,CN1CCC(CC1)OC(=O)C(CCSC)NC(=O)c2c(cc(s2)/C=C/Cn3ccnc3)c4ccc(cc4)F,CSCCC(NC(=O)C=1SC(=CC1C=2C=CC(=CC2)F)/C=C/CN3C=CN=C3)C(=O)OC4CCN(CC4)C,-2.8700837000000003
AYLXPOAWZOYJRC-UHFFFAOYSA-N,,COc1cc2ncnc(Nc3cc(C)ccc3F)c2cc1OCCCN1CCOCC1,Cc1ccc(c(c1)Nc2c3cc(c(cc3ncn2)OC)OCCCN4CCOCC4)F,COC=1C=C2N=CN=C(C2=CC1OCCCN3CCOCC3)NC=4C=C(C=CC4F)C,-2.69897
AYMREZBWXIDLPZ-UHFFFAOYSA-N,,CCN(CC)C(=O)C(C)(C)c1ccc2[nH]c(-c3cc(C)cc(C)c3)c(CCN/C(=N\C#N)N3CCN(CCN)CC3)c2c1,CCN(CC)C(=O)C(C)(C)c1ccc2c(c1)c(c([nH]2)c3cc(cc(c3)C)C)CCN/C(=N\C#N)/N4CCN(CC4)CCN,CCN(CC)C(=O)C(C)(C)C=1C=CC=2NC(=C(C2C1)CCN/C(=N\C#N)/N3CCN(CC3)CCN)C=4C=C(C=C(C4)C)C,-3.6382722000000003
AYPFEYDGZDPAPE-UHFFFAOYSA-N,3-chloro-4-[(3-fluorophenyl)methoxy]aniline,Nc1ccc(OCc2cccc(F)c2)c(Cl)c1,c1cc(cc(c1)F)COc2ccc(cc2Cl)N,NC=1C=CC(=C(C1)Cl)OCC=2C=CC=C(C2)F,-4.693146167
AYRRNFHDJUXLEQ-UHFFFAOYSA-N,Phenyl diamidophosphate,NP(N)(=O)Oc1ccccc1,c1ccc(cc1)OP(=O)(N)N,NP(=O)(N)OC=1C=CC=CC1,-1.4878267019999998
AYRUNOHYGZHEHG-UHFFFAOYSA-N,,O=c1cc2c(nn1-c1ccc(Cl)cc1)-c1ncccc1CC2,c1cc2c(nc1)-c3c(cc(=O)n(n3)c4ccc(cc4)Cl)CC2,O=C1N(N=C2C(=C1)CCC3=C2N=CC=C3)C=4C=CC(=CC4)Cl,-4.1485970000000005
AYRXSINWFIIFAE-UHFFFAOYSA-N,MELIBIOSE,O=CC(O)C(O)C(O)C(O)COC1OC(CO)C(O)C(O)C1O,C(C1C(C(C(C(O1)OCC(C(C(C(C=O)O)O)O)O)O)O)O)O,C1(C(C(C(OC1OCC(C(C(C(C=O)O)O)O)O)CO)O)O)O,0.4656
AYWLCKHHUFBVGJ-UHFFFAOYSA-N,"1,6-BIS(7-METHYLOCTYL) HEXANEDIOATE",CC(C)CCCCCCOC(=O)CCCCC(=O)OCCCCCCC(C)C,CC(C)CCCCCCOC(=O)CCCCC(=O)OCCCCCCC(C)C,CC(C)CCCCCCOC(=O)CCCCC(=O)OCCCCCCC(C)C,-6.600567801
AYXYPKUFHZROOJ-UHFFFAOYSA-N,pregabalin,CC(C)C[C@H](CN)CC(=O)O,CC(C)C[C@@H](CC(=O)O)CN,CC(C)C[C@@H](CC(=O)O)CN,-1.1489464520000001
AYYCRXDSCYPSRP-UHFFFAOYSA-N,"N-cyclohexyl-3-[(4-{[3-(cyclohexylsulfamoyl)-2,4,6-trimethylphenyl]amino}-9,10-dioxo-9,10-dihydroanthracen-1-yl)amino]-2,4,6-trimethylbenzene-1-sulfonamide",Cc1cc(C)c(S(=O)(=O)NC2CCCCC2)c(C)c1Nc1ccc(Nc2c(C)cc(C)c(S(=O)(=O)NC3CCCCC3)c2C)c2c1C(=O)c1ccccc1C2=O,Cc1cc(c(c(c1Nc2ccc(c3c2C(=O)c4ccccc4C3=O)Nc5c(cc(c(c5C)S(=O)(=O)NC6CCCCC6)C)C)C)S(=O)(=O)NC7CCCCC7)C,CC=1C=C(C(=C(C1NC=2C=CC(=C3C2C(=O)C4=C(C=CC=C4)C3=O)NC=5C(=CC(=C(C5C)S(=O)(=O)NC6CCCCC6)C)C)C)S(=O)(=O)NC7CCCCC7)C,-4.818851733
AZFKQCNGMSSWDS-UHFFFAOYSA-N,MCPA-thioethyl,CCSC(=O)COc1ccc(Cl)cc1C,CCSC(=O)COc1ccc(cc1C)Cl,CCSC(=O)COC=1C=CC(=CC1C)Cl,-5.027
AZFQCTBZOPUVOW-UHFFFAOYSA-N,methyl(triphenyl)phosphonium bromide,C[P+](c1ccccc1)(c1ccccc1)c1ccccc1,C[P+](c1ccccc1)(c2ccccc2)c3ccccc3,C[P+](C=1C=CC=CC1)(C=2C=CC=CC2)C=3C=CC=CC3,-0.018921517
AZFVZMKCOBJRAW-UHFFFAOYSA-N,,NC(=O)Nc1cc(-c2ccsc2)sc1C(N)=O,c1cscc1c2cc(c(s2)C(=O)N)NC(=O)N,NC(=O)NC=1C=C(SC1C(=O)N)C=2C=CSC2,-4.0362122000000005