inchikey,Name,SMILES_stand,SMILES,kekSmiles,logS
IKMOTDIWFIROFO-UHFFFAOYSA-N,3-hydroxypropyl 2-(6-methoxynaphthalen-2-yl)propanoate,COc1ccc2cc(C(C)C(=O)OCCCO)ccc2c1,CC(c1ccc2cc(ccc2c1)OC)C(=O)OCCCO,COC1=CC2=CC=C(C=C2C=C1)C(C)C(=O)OCCCO,-3.3975
IKNSEFHLFNZKDI-UHFFFAOYSA-N,,CCN(CC)C(=O)C(C)(C)c1ccc2[nH]c(-c3cc(C)cc(C)c3)c(CCNC(=O)N3CCC(c4ccncc4)C3)c2c1,CCN(CC)C(=O)C(C)(C)c1ccc2c(c1)c(c([nH]2)c3cc(cc(c3)C)C)CCNC(=O)N4CCC(C4)c5ccncc5,CCN(CC)C(=O)C(C)(C)C=1C=CC=2NC(=C(C2C1)CCNC(=O)N3CCC(C3)C=4C=CN=CC4)C=5C=C(C=C(C5)C)C,-5.7447275
IKNZKKJNUXZVLE-UHFFFAOYSA-N,,COc1cc2ncnc(Nc3ccc(F)c(Cl)c3)c2cc1OC1CCNC1,COc1cc2c(cc1OC3CCNC3)c(ncn2)Nc4ccc(c(c4)Cl)F,COC=1C=C2N=CN=C(C2=CC1OC3CCNC3)NC=4C=CC(=C(C4)Cl)F,-3.5376019999999997
IKQRPFTXKQQLJF-UHFFFAOYSA-N,rolitetracycline,CN(C)[C@@H]1C(=O)C(C(=O)NCN2CCCC2)=C(O)[C@@]2(O)C(=O)C3=C(O)c4c(O)cccc4[C@@](C)(O)[C@H]3C[C@@H]12,C[C@]1(c2cccc(c2C(=C3[C@@H]1C[C@H]4[C@@H](C(=O)C(=C([C@]4(C3=O)O)O)C(=O)NCN5CCCC5)N(C)C)O)O)O,OC12C(CC3C(C4=C(C(=CC=C4)O)C(=C3C1=O)O)(O)C)C(C(=O)C(=C2O)C(=O)NCN5CCCC5)N(C)C,-0.52268504
IKROHIVUCNQKGM-UHFFFAOYSA-N,,O=C(NCCc1ccc(F)cc1)c1cc2sc(Cl)cc2[nH]1,c1cc(ccc1CCNC(=O)c2cc3c([nH]2)cc(s3)Cl)F,FC=1C=CC(=CC1)CCNC(=O)C2=CC=3SC(=CC3N2)Cl,-5.455932
IKTHMQYJOWTSJO-UHFFFAOYSA-N,"1-(6-tert-butyl-1,1-dimethyl-2,3-dihydro-1H-inden-4-yl)ethan-1-one",CC(=O)c1cc(C(C)(C)C)cc2c1CCC2(C)C,CC(=O)c1cc(cc2c1CCC2(C)C)C(C)(C)C,CC(=O)C=1C=C(C=C2C1CCC2(C)C)C(C)(C)C,-4.870933104
IKVITEMYFVVJFY-UHFFFAOYSA-N,"4-(4-Bromo-2-fluorophenylamino)-N-ethoxy-1,5-dimethyl-6-oxo-1,6-dihydropyridine-3-carboxamide",CCONC(=O)c1cn(C)c(=O)c(C)c1Nc1ccc(Br)cc1F,CCONC(=O)c1cn(c(=O)c(c1Nc2ccc(cc2F)Br)C)C,CCONC(=O)C1=CN(C(=O)C(=C1NC2=C(C=C(C=C2)Br)F)C)C,-3.82
IKVPZYAOGOJTLK-UHFFFAOYSA-N,"5,5-diphenylbarbituric  acid",O=C1NC(=O)C(c2ccccc2)(c2ccccc2)C(=O)N1,c1ccc(cc1)C2(C(=O)NC(=O)NC2=O)c3ccccc3,O=C1NC(=O)C(C(=O)N1)(C2=CC=CC=C2)C3=CC=CC=C3,-4.199
IKVXBIIHQGXQRQ-UHFFFAOYSA-N,Flamprop-M-isopropyl,CC(C)OC(=O)[C@H](C)N(C(=O)c1ccccc1)c1ccc(F)c(Cl)c1,CC(C)OC(=O)[C@H](C)N(c1ccc(c(c1)Cl)F)C(=O)c2ccccc2,N(C(=O)C1=CC=CC=C1)(C=2C=C(C(=CC2)F)Cl)C(C(=O)OC(C)C)C,-4.4817
IKXFIBBKEARMLL-UHFFFAOYSA-N,triphenoxy-??-phosphanethione,S=P(Oc1ccccc1)(Oc1ccccc1)Oc1ccccc1,c1ccc(cc1)OP(=S)(Oc2ccccc2)Oc3ccccc3,S=P(OC=1C=CC=CC1)(OC=2C=CC=CC2)OC=3C=CC=CC3,-6.955
IKYICRRUVNIHPP-UHFFFAOYSA-N,DIMETHAMRTRYNE,CCNc1nc(NC(C)C(C)C)nc(SC)n1,CCNc1nc(nc(n1)SC)NC(C)C(C)C,N=1C(=NC(=NC1SC)NCC)NC(C(C)C)C,-3.708
IKZBNCORGKYEDZ-UHFFFAOYSA-N,"7-(3-aminoazetidin-1-yl)-1-cyclopropyl-6,8-difluoro-4-oxoquinoline-3-carboxylic acid",NC1CN(c2c(F)cc3c(=O)c(C(=O)O)cn(C4CC4)c3c2F)C1,c1c2c(c(c(c1F)N3CC(C3)N)F)n(cc(c2=O)C(=O)O)C4CC4,NC1CN(C1)C2=C(C3=C(C=C2F)C(=O)C(=CN3C4CC4)C(=O)O)F,-5.269
IKZRFGGARFKJOA-UHFFFAOYSA-N,8-aminopurine,Nc1nc2cncnc2[nH]1,c1c2c([nH]c(n2)N)ncn1,NC1=NC2=C(N1)N=CN=C2,-2.4225
ILBONRFSLATCRE-UHFFFAOYSA-N,phosfolan,CCOP(=O)(N=C1SCCS1)OCC,CCOP(=O)(N=C1SCCS1)OCC,N(=C1SCCS1)P(=O)(OCC)OCC,-2.594
ILCTUFVQFCIIDS-UHFFFAOYSA-N,STANOLONE  ACETATE,CC(=O)OC1CCC2C3CCC4CC(=O)CCC4(C)C3CCC12C,CC(=O)OC1CCC2C1(CCC3C2CCC4C3(CCC(=O)C4)C)C,CC(=O)OC1CCC2C1(CCC3C2CCC4C3(CCC(=O)C4)C)C,-5.35
ILEBMENFZGZACA-UHFFFAOYSA-N,,CCCSc1nc(N/N=C/c2ccccc2)c2nnn(C3CC(C(=O)O)C(O)C3O)c2n1,CCCSc1nc(c2c(n1)n(nn2)C3CC(C(C3O)O)C(=O)O)N/N=C/c4ccccc4,C=1C=CC=C(C1)/C=N/NC=2N=C(N=C3C2N=NN3C4CC(C(C4O)O)C(=O)O)SCCC,-2.607325
ILKSQJNTONZFDS-UHFFFAOYSA-N,,O=C(COc1ccc(OCc2ccc(Cl)cc2Cl)cc1)COc1ccc(C(=O)O)cc1,c1cc(ccc1C(=O)O)OCC(=O)COc2ccc(cc2)OCc3ccc(cc3Cl)Cl,C=1(C=C(C(=CC1)COC=2C=CC(=CC2)OCC(=O)COC=3C=CC(=CC3)C(=O)O)Cl)Cl,-5.2819636
ILLSOIRJMQNTIA-UHFFFAOYSA-N,"L-365,209 -ANALOG 11;  (CYCLIC HEXAPEPTIDE)",CCC(C)C1NC(=O)C(Cc2ccc3ccccc3c2)NC(=O)C2CCCN2C(=O)C(Cc2c[nH]cn2)NC(=O)C2CCCCN2C(=O)C2CCCCN2C1=O,CCC(C)C1C(=O)N2CCCCC2C(=O)N3CCCCC3C(=O)NC(C(=O)N4CCCC4C(=O)NC(C(=O)N1)Cc5ccc6ccccc6c5)Cc7c[nH]cn7,CCC(C)C1NC(=O)C(NC(=O)C2CCCN2C(=O)C(NC(=O)C3CCCCN3C(=O)C4CCCCN4C1=O)CC5=CNC=N5)CC6=CC7=C(C=CC=C7)C=C6,-3.98
ILRUQTJOKJDPDF-UHFFFAOYSA-N,,CN(C)C(=O)c1ccc(S(=O)(=O)c2ccc(NC(=O)C(C)(O)C(F)(F)F)c(F)c2F)cc1,CC(C(=O)Nc1ccc(c(c1F)F)S(=O)(=O)c2ccc(cc2)C(=O)N(C)C)(C(F)(F)F)O,CN(C)C(=O)C=1C=CC(=CC1)S(=O)(=O)C=2C=CC(=C(C2F)F)NC(=O)C(C)(O)C(F)(F)F,-3.853872
ILTPPXIMTPLZNG-UHFFFAOYSA-N,,COc1cc2c(Nc3cnc(NC(=O)CCC4CC4)nc3)ncnc2cc1OCC1CCN(C)CC1,CN1CCC(CC1)COc2cc3c(cc2OC)c(ncn3)Nc4cnc(nc4)NC(=O)CCC5CC5,COC=1C=C2C(=NC=NC2=CC1OCC3CCN(CC3)C)NC=4C=NC(=NC4)NC(=O)CCC5CC5,-3.3565473
ILUJQPXNXACGAN-UHFFFAOYSA-N,o-Methoxybenzoic Acid,COc1ccccc1C(=O)O,COc1ccccc1C(=O)O,COC=1C=CC=CC1C(=O)O,-1.483
ILVQBZUNRUNEAZ-UHFFFAOYSA-N,,COc1cc2c(Nc3ccc(NC(=O)c4ccccc4)cc3)ncnc2cc1OCC(O)CNC1CCCC1,COc1cc2c(cc1OCC(CNC3CCCC3)O)ncnc2Nc4ccc(cc4)NC(=O)c5ccccc5,COC=1C=C2C(=NC=NC2=CC1OCC(O)CNC3CCCC3)NC=4C=CC(=CC4)NC(=O)C=5C=CC=CC5,-3.5805754999999997
ILYSAKHOYBPSPC-UHFFFAOYSA-N,2-BIPHENYLCARBOXYLIC  ACID;  2-PHENYLBENZOIC ACID,O=C(O)c1ccccc1-c1ccccc1,c1ccc(cc1)c2ccccc2C(=O)O,OC(=O)C1=C(C=CC=C1)C2=CC=CC=C2,-2.73
IMBFAWKVCSIUTE-UHFFFAOYSA-N,,COc1cc2ncnc(Nc3ccc(OCc4nccs4)c(C)c3)c2cc1OC,Cc1cc(ccc1OCc2nccs2)Nc3c4cc(c(cc4ncn3)OC)OC,COC=1C=C2N=CN=C(C2=CC1OC)NC=3C=CC(=C(C3)C)OCC4=NC=CS4,-5.3565473
IMBWJKAHECFPRT-UHFFFAOYSA-N,,C=C(C)COc1ccc(Br)cc1CN(CC)c1ccc(C(=O)NS(=O)(=O)Cc2ccccc2)nn1,CCN(Cc1cc(ccc1OCC(=C)C)Br)c2ccc(nn2)C(=O)NS(=O)(=O)Cc3ccccc3,CCN(CC=1C=C(C=CC1OCC(=C)C)Br)C=2C=CC(=NN2)C(=O)NS(=O)(=O)CC=3C=CC=CC3,-4.39794
IMBXEJJVJRTNOW-UHFFFAOYSA-N,METHYLPREDNISOLONE-21-HEMISUCCINATE,CC1CC2C(C(O)CC3(C)C2CCC3(O)C(=O)COC(=O)CCC(=O)O)C2(C)C=CC(=O)C=C12,CC1CC2C3CCC(C3(CC(C2C4(C1=CC(=O)C=C4)C)O)C)(C(=O)COC(=O)CCC(=O)O)O,CC1CC2C3CCC(C3(CC(C2C4(C1=CC(=O)C=C4)C)O)C)(O)C(=O)COC(=O)CCC(=O)O,-4.2
IMCDJQFPSGEUEX-UHFFFAOYSA-N,,O=C(NC(Cc1ccc(F)cc1)C(=O)N1CCC(O)CC1)c1cc2cc(Cl)sc2[nH]1,c1cc(ccc1CC(C(=O)N2CCC(CC2)O)NC(=O)c3cc4cc(sc4[nH]3)Cl)F,OC1CCN(CC1)C(=O)C(CC=2C=CC(=CC2)F)NC(=O)C3=CC=4C=C(SC4N3)Cl,-4.1727192
IMDUILMFDFEWHH-UHFFFAOYSA-N,,N=C(N)c1ccc2cc(OC(=O)c3ccc(CN)cc3)ccc2c1,c1cc(ccc1CN)C(=O)Oc2ccc3cc(ccc3c2)C(=N)N,NCC=1C=CC(=CC1)C(=O)OC=2C=CC=3C=C(C=CC3C2)C(=N)N,-3.2839967000000003
IMEVJVISCHQJRM-UHFFFAOYSA-N,Triflusulfuron-methyl,COC(=O)c1cccc(C)c1S(=O)(=O)NC(=O)Nc1nc(OCC(F)(F)F)nc(N(C)C)n1,Cc1cccc(c1S(=O)(=O)NC(=O)Nc2nc(nc(n2)OCC(F)(F)F)N(C)C)C(=O)OC,O=C(OC)C1=CC=CC(=C1S(=O)(=O)NC(=O)NC2=NC(=NC(=N2)OCC(F)(F)F)N(C)C)C,-4.4835
IMFACGCPASFAPR-UHFFFAOYSA-N,Tributylamine,CCCCN(CCCC)CCCC,CCCCN(CCCC)CCCC,N(CCCC)(CCCC)CCCC,-3.1180000000000003
IMFYAZJNDOZIFV-UHFFFAOYSA-N,"3-Methyl-1,1-diphenylurea",CNC(=O)N(c1ccccc1)c1ccccc1,CNC(=O)N(c1ccccc1)c2ccccc2,CNC(=O)N(C=1C=CC=CC1)C=2C=CC=CC2,-2.9839730789999996
IMHBYKMAHXWHRP-UHFFFAOYSA-N,"anilazine;  2,4-dichloro-6-(2-chlorophenylamino)-1,3,5-triazine",Clc1nc(Cl)nc(Nc2ccccc2Cl)n1,c1ccc(c(c1)Nc2nc(nc(n2)Cl)Cl)Cl,ClC=1N=C(N=C(N1)NC=2C=CC=CC2Cl)Cl,-4.53705
IMIDOCRTMDIQIJ-UHFFFAOYSA-N,aminocarb;  4-dimethylamino-3-methylphenyl  (n-methyl)carbamate,CNC(=O)Oc1ccc(N(C)C)c(C)c1,Cc1cc(ccc1N(C)C)OC(=O)NC,O=C(OC=1C=C(C(=CC1)N(C)C)C)NC,-2.36
IMLOLBJKVGTVRZ-UHFFFAOYSA-N,7-(PROPIONYLOXYMETHYL)THEOPHYLLINE;  7-(Propanoyloxymethyl)theophylline,CCC(=O)OCn1cnc2c1c(=O)n(C)c(=O)n2C,CCC(=O)OCn1cnc2c1c(=O)n(c(=O)n2C)C,CCC(=O)OCN1C=NC2=C1C(=O)N(C(=O)N2C)C,-2.3
IMMLSOUHQHJKTL-UHFFFAOYSA-N,aceclofenac alanine methyl aster,COC(=O)C(C)NC(=O)COC(=O)CC1=CC=CC=CC1NC1=C(Cl)CC=CC=C1Cl,CC(C(=O)OC)NC(=O)COC(=O)CC1=CC=CC=CC1NC2=C(CC=CC=C2Cl)Cl,ClC1=CC=CCC(=C1NC2C(=CC=CC=C2)CC(=O)OCC(=O)NC(C(=O)OC)C)Cl,-1.45286
IMMNOFWGJIRZSV-UHFFFAOYSA-N,,O=C(NCCc1ccc(F)cc1)c1cc2scc(Cl)c2[nH]1,c1cc(ccc1CCNC(=O)c2cc3c([nH]2)c(cs3)Cl)F,FC=1C=CC(=CC1)CCNC(=O)C2=CC=3SC=C(C3N2)Cl,-5.552842
IMNDHOCGZLYMRO-UHFFFAOYSA-N,,CN(C)C(=O)c1ccccc1,CN(C)C(=O)c1ccccc1,O=C(C1=CC=CC=C1)N(C)C,-0.8232
IMONTRJLAWHYGT-UHFFFAOYSA-N,norethisterone_acetate,C#C[C@]1(OC(C)=O)CC[C@H]2[C@@H]3CCC4=CC(=O)CC[C@@H]4[C@H]3CC[C@@]21C,CC(=O)O[C@]1(CC[C@@H]2[C@@]1(CC[C@H]3[C@H]2CCC4=CC(=O)CC[C@H]34)C)C#C,O=C(OC1(C2(C(C3C(C4C(=CC(=O)CC4)CC3)CC2)CC1)C)C#C)C,-4.8
IMPKVMRTXBRHRB-UHFFFAOYSA-N,d-quercitol;  pentahydroxycyclohexane,OC1[C@@H](O)[C@H](O)C[C@@H](O)[C@@H]1O,C1[C@H]([C@@H](C([C@H]([C@@H]1O)O)O)O)O,O[C@@H]1C[C@H]([C@@H](C([C@H]1O)O)O)O,-0.17
IMPPGHMHELILKG-UHFFFAOYSA-N,4-ETHOXYANILINE,CCOc1ccc(N)cc1,CCOc1ccc(cc1)N,CCOC=1C=CC(=CC1)N,-0.8608
IMPQNNKBYRIPIQ-UHFFFAOYSA-N,"sodium 5-butyl-1H-1,2,3-benzotriazol-1-ide",CCCCc1ccc2[n-]nnc2c1,CCCCc1ccc2c(c1)nn[n-]2,CCCCC=1C=CC=2[N-]N=NC2C1,0.404012828
IMPWCIFPLYQYLB-UHFFFAOYSA-N,N1-(1-ISOBUTYL-2-OXOPYRIMIDIN-4-YL)SULFANILAMIDE;  1-Isobutyl-4-sulfapyrimidin-2-one,CC(C)Cn1ccc(NS(=O)(=O)c2ccc(N)cc2)nc1=O,CC(C)Cn1ccc(nc1=O)NS(=O)(=O)c2ccc(cc2)N,CC(C)CN1C=CC(=NC1=O)NS(=O)(=O)C2=CC=C(C=C2)N,-3.11
IMQZHNMZKUCNAB-UHFFFAOYSA-N,"Ethane, 1,1'-oxybis[2-[(2-chloroethyl)sulfonyl]-",O=S(=O)(CCCl)CCOCCS(=O)(=O)CCCl,C(CS(=O)(=O)CCCl)OCCS(=O)(=O)CCCl,S(=O)(=O)(CCCl)CCOCCS(=O)(=O)CCCl,-1.9409
IMSSROKUHAOUJS-UHFFFAOYSA-N,mestranol,C#CC1(O)CCC2C3CCc4cc(OC)ccc4C3CCC21C,CC12CCC3c4ccc(cc4CCC3C1CCC2(C#C)O)OC,COC1=CC=C2C(=C1)CCC3C2CCC4(C3CCC4(O)C#C)C,-5.49
IMUUNYPYNWXUBO-UHFFFAOYSA-N,"4-aminobenzene-1,3-disulfonic acid",Nc1ccc(S(=O)(=O)O)cc1S(=O)(=O)O,c1cc(c(cc1S(=O)(=O)O)S(=O)(=O)O)N,NC=1C=CC(=CC1S(=O)(=O)O)S(=O)(=O)O,-1.7700465019999998
IMWQMZMZPWIQBE-UHFFFAOYSA-N,[(~{Z})-[(1~{Z})-1-(carbamoylhydrazinylidene)propan-2-ylidene]amino]urea,CC(/C=N/NC(N)=O)=N\NC(N)=O,C/C(=N\NC(=O)N)/C=N/NC(=O)N,O=C(N/N=C(/C=N/NC(=O)N)\C)N,-1.949
IMWZZHHPURKASS-UHFFFAOYSA-N,metaxalone,Cc1cc(C)cc(OCC2CNC(=O)O2)c1,Cc1cc(cc(c1)OCC2CNC(=O)O2)C,CC1=CC(=CC(=C1)OCC2CNC(=O)O2)C,-2.867762025
IMYCVFRTNVMHAD-UHFFFAOYSA-N,"1,1-bis[(2-methylbutan-2-yl)peroxy]cyclohexane",CCC(C)(C)OOC1(OOC(C)(C)CC)CCCCC1,CCC(C)(C)OOC1(CCCCC1)OOC(C)(C)CC,CCC(C)(C)OOC1(CCCCC1)OOC(C)(C)CC,-5.46001871
IMYVCWQAHSYYOO-UHFFFAOYSA-N,,COc1cc2ncnc(Nc3ccc(NC(=O)c4ccccc4)cc3)c2cc1OC,COc1cc2c(cc1OC)ncnc2Nc3ccc(cc3)NC(=O)c4ccccc4,COC=1C=C2N=CN=C(C2=CC1OC)NC=3C=CC(=CC3)NC(=O)C=4C=CC=CC4,-5.0
IMYZQPCYWPFTAG-UHFFFAOYSA-N,mecamylamine,CNC1(C)C2CCC(C2)C1(C)C,CC1(C2CCC(C2)C1(C)NC)C,CC1(C2CCC(C2)C1(C)NC)C,0.10286588
IMZMKUWMOSJXDT-UHFFFAOYSA-N,cromolyn,O=C(O)c1cc(=O)c2c(OCC(O)COc3cccc4oc(C(=O)O)cc(=O)c34)cccc2o1,c1cc2c(c(c1)OCC(COc3cccc4c3c(=O)cc(o4)C(=O)O)O)c(=O)cc(o2)C(=O)O,C1=CC2=C(C(=C1)OCC(COC3=CC=CC4=C3C(=O)C=C(O4)C(=O)O)O)C(=O)C=C(O2)C(=O)O,-0.348369775
INAMEDPXUAWNKL-UHFFFAOYSA-N,docosan-1-amine; hexadecan-1-amine; icosan-1-amine; octadecan-1-amine,CCCCCCCCCCCCCCCCCCCN,CCCCCCCCCCCCCCCCCCCN,CCCCCCCCCCCCCCCCCCCN,-5.85706212
INAPMGSXUVUWAF-UHFFFAOYSA-N,INOSITOL MONOPHOSPHATE,O=P(O)(O)OC1C(O)C(O)C(O)C(O)C1O,C1(C(C(C(C(C1O)O)OP(=O)(O)O)O)O)O,OC1C(C(C(C(C1O)O)OP(=O)(O)O)O)O,0.1076
INCNDXNRSGQMAI-UHFFFAOYSA-N,,Cc1ccccc1NC(=O)Nc1ccc(NC(=O)OCc2cccc(OCCCC(=O)O)c2)cc1,Cc1ccccc1NC(=O)Nc2ccc(cc2)NC(=O)OCc3cccc(c3)OCCCC(=O)O,CC=1C=CC=CC1NC(=O)NC=2C=CC(=CC2)NC(=O)OCC=3C=CC=C(C3)OCCCC(=O)O,-5.1426675
INCSQLZZXBPATR-UHFFFAOYSA-N,methyl 3-aminopyrazine-2-carboxylate,COC(=O)c1nccnc1N,COC(=O)c1c(nccn1)N,COC(=O)C=1N=CC=NC1N,-1.642133026
INDBQLZJXZLFIT-UHFFFAOYSA-N,Primaquine,COc1cc(NC(C)CCCN)c2ncccc2c1,CC(CCCN)Nc1cc(cc2c1nccc2)OC,O(C1=CC(=C2N=CC=CC2=C1)NC(CCCN)C)C,-2.77
INDKVZWFXPFWDU-UHFFFAOYSA-N,,CC(O)(C(=O)Nc1ccc(S(=O)(=O)Nc2ccc(C(N)=O)cc2)cc1Cl)C(F)(F)F,CC(C(=O)Nc1ccc(cc1Cl)S(=O)(=O)Nc2ccc(cc2)C(=O)N)(C(F)(F)F)O,CC(O)(C(=O)NC=1C=CC(=CC1Cl)S(=O)(=O)NC=2C=CC(=CC2)C(=O)N)C(F)(F)F,-3.2924297999999994
INEOZCMFKYVJQA-UHFFFAOYSA-N,,CC(=O)n1c2c(c3cc(NC(=O)CCc4ccncc4)ccc31)CCCC2,CC(=O)n1c2ccc(cc2c3c1CCCC3)NC(=O)CCc4ccncc4,CC(=O)N1C2=C(C3=C1C=CC(=C3)NC(=O)CCC=4C=CN=CC4)CCCC2,-5.7695511
INFBOCMZSJXKJS-UHFFFAOYSA-N,,Cc1ccccc1NC(=O)Nc1cccc(CC(=O)Nc2cccc(SCC(C)CC(=O)O)c2)c1,Cc1ccccc1NC(=O)Nc2cccc(c2)CC(=O)Nc3cccc(c3)SCC(C)CC(=O)O,CC(CSC=1C=CC=C(C1)NC(=O)CC=2C=CC=C(C2)NC(=O)NC=3C=CC=CC3C)CC(=O)O,-4.2076082999999995
INFDPOAKFNIJBF-UHFFFAOYSA-N,Paraquat ion,C[n+]1ccc(-c2cc[n+](C)cc2)cc1,C[n+]1ccc(cc1)c2cc[n+](cc2)C,[N+]1(=CC=C(C=C1)C2=CC=[N+](C=C2)C)C,0.4349
INHXSMASASFALB-UHFFFAOYSA-N,"3-(5-imino-3-methyl-4,5-dihydro-1H-pyrazol-1-yl)benzene-1-sulfonic acid",CC1=NN(c2cccc(S(=O)(=O)O)c2)C(=N)C1,CC1=NN(C(=N)C1)c2cccc(c2)S(=O)(=O)O,CC1=NN(C(=N)C1)C=2C=CC=C(C2)S(=O)(=O)O,-1.13889411
INISTDXBRIBGOC-UHFFFAOYSA-N,Tau-fluvalinate,CC(C)C(Nc1ccc(C(F)(F)F)cc1Cl)C(=O)OC(C#N)c1cccc(Oc2ccccc2)c1,CC(C)C(C(=O)OC(C#N)c1cccc(c1)Oc2ccccc2)Nc3ccc(cc3Cl)C(F)(F)F,FC(F)(F)C1=CC(=C(C=C1)NC(C(C)C)C(=O)OC(C2=CC(=CC=C2)OC3=CC=CC=C3)C#N)Cl,-8.003
INJOMKTZOLKMBF-UHFFFAOYSA-N,guanfacine hydrochloride,NC(N)=NC(=O)Cc1c(Cl)cccc1Cl,c1cc(c(c(c1)Cl)CC(=O)N=C(N)N)Cl,C1=CC(=C(C(=C1)Cl)CC(=O)N=C(N)N)Cl,-2.451095312
INMOPQVHEBKRQX-UHFFFAOYSA-N,,CCOC(=O)CCCCN1CCOC(COC(=O)Nc2cc(OC)c(NC(=O)Nc3ccccc3C)cc2C)C1,CCOC(=O)CCCCN1CCOC(C1)COC(=O)Nc2cc(c(cc2C)NC(=O)Nc3ccccc3C)OC,CCOC(=O)CCCCN1CCOC(C1)COC(=O)NC=2C=C(C(=CC2C)NC(=O)NC=3C=CC=CC3C)OC,-5.5850267
INNPZTGYZSAJFN-UHFFFAOYSA-N,,CCSC(C)CC1CC(=O)C(=C(CC)NOC/C=C/Cl)C(=O)C1,CCC(=C1C(=O)CC(CC1=O)CC(C)SCC)NOC/C=C/Cl,O=C1C(=C(NOC/C=C/Cl)CC)C(=O)CC(C1)CC(SCC)C,-1.82
INOYCBNLWYEPSB-UHFFFAOYSA-N,ETOXADROL,CCC1(c2ccccc2)OCC(C2CCCCN2)O1,CCC1(OCC(O1)C2CCCCN2)c3ccccc3,CCC1(OCC(O1)C2CCCCN2)C3=CC=CC=C3,-1.96
INPXMPZNNZKJFI-UHFFFAOYSA-N,,CC(O)(C(=O)Nc1ccc(S(=O)(=O)c2ccccc2C(F)(F)F)cc1Cl)C(F)(F)F,CC(C(=O)Nc1ccc(cc1Cl)S(=O)(=O)c2ccccc2C(F)(F)F)(C(F)(F)F)O,CC(O)(C(=O)NC=1C=CC(=CC1Cl)S(=O)(=O)C=2C=CC=CC2C(F)(F)F)C(F)(F)F,-5.69897
INRYEFODKKMLFS-UHFFFAOYSA-N,2-Mentanol,CC(C)C1C(C)CCCC1O,CC1CCCC(C1C(C)C)O,CC(C)C1C(CCCC1O)C,-0.29
INSLKOSACZUCLH-UHFFFAOYSA-N,,CC(C)NC(=O)N1CCCC(C(CS(=O)(=O)N2CCN(c3ccc(F)cc3)CC2)N(O)C=O)C1,CC(C)NC(=O)N1CCCC(C1)C(CS(=O)(=O)N2CCN(CC2)c3ccc(cc3)F)N(C=O)O,CC(C)NC(=O)N1CCCC(C1)C(CS(=O)(=O)N2CCN(CC2)C=3C=CC(=CC3)F)N(O)C=O,-2.7236659
INTRMVJFHAUUKX-UHFFFAOYSA-N,,C#CCN(Cc1ccc2nc(CSc3nccc(O)n3)nc(O)c2c1)c1ccc(C(=O)NCc2cccc([N+](=O)[O-])c2)cc1,C#CCN(Cc1ccc2c(c1)c(nc(n2)CSc3nccc(n3)O)O)c4ccc(cc4)C(=O)NCc5cccc(c5)[N+](=O)[O-],OC=1C=CN=C(N1)SCC=2N=C(C=3C=C(C=CC3N2)CN(CC#C)C=4C=CC(=CC4)C(=O)NCC=5C=CC=C(C5)[N+](=O)[O-])O,-6.7825161
INVTYAOGFAGBOE-UHFFFAOYSA-N,,Nc1ccccc1NC(=O)c1ccc(CNC(=O)OCc2cccnc2)cc1,c1ccc(c(c1)N)NC(=O)c2ccc(cc2)CNC(=O)OCc3cccnc3,NC=1C=CC=CC1NC(=O)C=2C=CC(=CC2)CNC(=O)OCC=3C=CC=NC3,-4.09691
INVUGRRUWJSXBQ-UHFFFAOYSA-N,,O=C(O)c1ccc(NC(=O)c2cc(Cl)cc(OCc3ccccc3)c2)nc1,c1ccc(cc1)COc2cc(cc(c2)Cl)C(=O)Nc3ccc(cn3)C(=O)O,OC(=O)C=1C=CC(=NC1)NC(=O)C=2C=C(C=C(C2)OCC=3C=CC=CC3)Cl,-5.6382722
INVVMIXYILXINW-UHFFFAOYSA-N,"5-Methyl-[1,2,4]triazolo[1,5-a]pyrimidin-7-ol",Cc1cc(=O)n2[nH]cnc2n1,Cc1cc(=O)n2c(n1)nc[nH]2,CC1=CC(=O)N2NC=NC2=N1,-1.347
INVYFPDRAFXWGY-UHFFFAOYSA-N,,CC(C)C(CN1CCCC1)N(C)C(=O)Cc1ccc(Nc2ncc(Br)c(Nc3ccccc3)n2)cc1,CC(C)C(CN1CCCC1)N(C)C(=O)Cc2ccc(cc2)Nc3ncc(c(n3)Nc4ccccc4)Br,CC(C)C(CN1CCCC1)N(C)C(=O)CC=2C=CC(=CC2)NC=3N=CC(=C(N3)NC=4C=CC=CC4)Br,-5.537602
INWLQCZOYSRPNW-UHFFFAOYSA-N,mepivacaine hydrochloride,Cc1cccc(C)c1NC(=O)C1CCCCN1C,Cc1cccc(c1NC(=O)C2CCCCN2C)C,O=C(NC=1C(=CC=CC1C)C)C2N(CCCC2)C,-1.55
INYDMNPNDHRJQJ-UHFFFAOYSA-N,"1,2-DINO2 4-METHYL BENZENE",Cc1ccc([N+](=O)[O-])c([N+](=O)[O-])c1,Cc1ccc(c(c1)[N+](=O)[O-])[N+](=O)[O-],CC=1C=CC(=C(C1)[N+](=O)[O-])[N+](=O)[O-],-3.26
INZDTEICWPZYJM-UHFFFAOYSA-N,1-(chloromethyl)-4-[4-(chloromethyl)phenyl]benzene,ClCc1ccc(-c2ccc(CCl)cc2)cc1,c1cc(ccc1CCl)c2ccc(cc2)CCl,ClCC=1C=CC(=CC1)C=2C=CC(=CC2)CCl,-10.09945678
IOBFOMPDQLNGSO-UHFFFAOYSA-N,,COc1cc2c(NC(=O)Nc3c(Cl)cc(Cl)cc3Cl)ncnc2cc1OCC1CCN(C)CC1,CN1CCC(CC1)COc2cc3c(cc2OC)c(ncn3)NC(=O)Nc4c(cc(cc4Cl)Cl)Cl,COC=1C=C2C(=NC=NC2=CC1OCC3CCN(CC3)C)NC(=O)NC=4C(=CC(=CC4Cl)Cl)Cl,-5.3187587999999995
IOBGNMZXYBQZSC-UHFFFAOYSA-N,,CC1CCCCOC(CN(C)S(=O)(=O)c2ccc(F)cc2)C(C)CN(C(C)CO)C(=O)c2cc(NC(=O)c3ccccc3)ccc2O1,CC1CCCCOC(C(CN(C(=O)c2cc(ccc2O1)NC(=O)c3ccccc3)C(C)CO)C)CN(C)S(=O)(=O)c4ccc(cc4)F,CC(CO)N1CC(C(OCCCCC(OC2=CC=C(C=C2C1=O)NC(=O)C3=CC=CC=C3)C)CN(C)S(=O)(=O)C4=CC=C(C=C4)F)C,-4.745
IOBHBJRVDLDBTK-UHFFFAOYSA-N,,O=C(c1ccc(-c2ccncc2)nc1)N1CCN(S(=O)(=O)c2ccc3cc(Cl)ccc3c2)CC1,c1cc(cc2c1cc(cc2)Cl)S(=O)(=O)N3CCN(CC3)C(=O)c4ccc(nc4)c5ccncc5,ClC=1C=CC=2C=C(C=CC2C1)S(=O)(=O)N3CCN(CC3)C(=O)C=4C=CC(=NC4)C=5C=CN=CC5,-5.6595559
IOCKQYCUKXHICE-UHFFFAOYSA-N,,CCc1cccc(Nc2nc(N)nc(Oc3ccc(C)[n+]([O-])c3)n2)c1,CCc1cccc(c1)Nc2nc(nc(n2)Oc3ccc([n+](c3)[O-])C)N,CCC=1C=CC=C(C1)NC=2N=C(N=C(N2)OC=3C=CC(=[N+](C3)[O-])C)N,-3.9706162000000003
IOCMJUXJUBZFSJ-UHFFFAOYSA-N,4-(4-hydroxy-4-phenylpiperidin-1-yl)-1-phenylbutan-1-one,O=C(CCCN1CCC(O)(c2ccccc2)CC1)c1ccccc1,c1ccc(cc1)C(=O)CCCN2CCC(CC2)(c3ccccc3)O,O=C(CCCN1CCC(CC1)(O)C2=CC=CC=C2)C3=CC=CC=C3,-2.681
IODLRULJWSQEHF-UHFFFAOYSA-N,,COc1ccnc(Oc2ccc(Nc3c(C#N)cnc4cc(OC)c(OC)cc34)cc2)c1,COc1ccnc(c1)Oc2ccc(cc2)Nc3c4cc(c(cc4ncc3C#N)OC)OC,COC=1C=CN=C(C1)OC=2C=CC(=CC2)NC=3C(=CN=C4C3C=C(C(=C4)OC)OC)C#N,-7.0457575
IOFJWHCIWURTCZ-UHFFFAOYSA-N,"ALLOPURINOL,2,5-BIS(PIVALOYLOXYMETHYL)-",CC(C)(C)C(=O)OCn1cc2c(=O)n(COC(=O)C(C)(C)C)cnc2n1,CC(C)(C)C(=O)OCn1cc2c(n1)ncn(c2=O)COC(=O)C(C)(C)C,CC(C)(C)C(=O)OCN1C=C2C(=O)N(C=NC2=N1)COC(=O)C(C)(C)C,-3.909
IOFXXKSKVMKTBX-UHFFFAOYSA-N,,COc1cc2c(Oc3ccc4[nH]c(C)cc4c3F)ncnc2cc1OCC1CCNCC1,Cc1cc2c([nH]1)ccc(c2F)Oc3c4cc(c(cc4ncn3)OCC5CCNCC5)OC,COC=1C=C2C(=NC=NC2=CC1OCC3CCNCC3)OC=4C=CC=5NC(=CC5C4F)C,-3.8894102999999998
IOHJQSFEAYDZGF-UHFFFAOYSA-N,2-Dodecyloxirane,CCCCCCCCCCCCC1CO1,CCCCCCCCCCCCC1CO1,CCCCCCCCCCCCC1CO1,-5.985
IOLXFZQGVMPCDS-UHFFFAOYSA-N,,COc1cc2ncnc(Nc3ccc(OCc4cccc(C)n4)c(C)c3)c2cc1OC,Cc1cccc(n1)COc2ccc(cc2C)Nc3c4cc(c(cc4ncn3)OC)OC,COC=1C=C2N=CN=C(C2=CC1OC)NC=3C=CC(=C(C3)C)OCC=4C=CC=C(N4)C,-5.522878700000001
IOOIOUOLXVONAC-UHFFFAOYSA-N,4-methoxysulfonylbenzoic acid,COS(=O)(=O)c1ccc(C(=O)O)cc1,COS(=O)(=O)c1ccc(cc1)C(=O)O,COS(=O)(=O)C1=CC=C(C=C1)C(=O)O,-3.0485
IOQGANOKTACMFU-UHFFFAOYSA-N,,NC(=O)Nc1sc(-c2ccccc2SCCN2CCCCC2)cc1C(N)=O,c1ccc(c(c1)c2cc(c(s2)NC(=O)N)C(=O)N)SCCN3CCCCC3,NC(=O)NC=1SC(=CC1C(=O)N)C=2C=CC=CC2SCCN3CCCCC3,-3.928118
IOQIWWTVXOPYQR-UHFFFAOYSA-N,2-(benzoylamino)-3-hydroxybutanoic acid,CC(O)C(NC(=O)c1ccccc1)C(=O)O,CC(C(C(=O)O)NC(=O)c1ccccc1)O,CC(O)C(NC(=O)C1=CC=CC=C1)C(=O)O,-1.2275
IOQOLGUXWSBWHR-UHFFFAOYSA-N,"5-methyl-2-(4-methylphenyl)-2,3-dihydro-1H-pyrazol-3-one",CC1=NN(c2ccc(C)cc2)C(=O)C1,Cc1ccc(cc1)N2C(=O)CC(=N2)C,CC=1C=CC(=CC1)N2N=C(CC2=O)C,-2.365833994
IOQQUARBSGAWCJ-UHFFFAOYSA-N,"2,5-Pyrrolidinedicarboxylic acid, 1-methyl-, cis",CN1C(C(=O)O)CCC1C(=O)O,CN1C(CCC1C(=O)O)C(=O)O,N1(C(CCC1C(=O)O)C(=O)O)C,-0.4426
IOQZSOCPFYNJIG-UHFFFAOYSA-N,1-nitroacridin-9-amine,Nc1c2ccccc2nc2cccc([N+](=O)[O-])c12,c1ccc2c(c1)c(c3c(n2)cccc3[N+](=O)[O-])N,C1=CC=C2C(=C1)C(=C3C(=N2)C=CC=C3[N+](=O)[O-])N,-1.839
IORLPIVJYIRVMS-UHFFFAOYSA-N,,CN(C)CCNS(=O)(=O)c1ccc(Nc2nccc(-c3cnc4cnccn34)n2)cc1,CN(C)CCNS(=O)(=O)c1ccc(cc1)Nc2nccc(n2)c3cnc4n3ccnc4,CN(C)CCNS(=O)(=O)C=1C=CC(=CC1)NC=2N=CC=C(N2)C3=CN=C4N3C=CN=C4,-3.7695510999999997
IOSAAWHGJUZBOG-UHFFFAOYSA-N,9-(2-hydroxy-3-nonyl)adenine,CCCCCCC(C(C)O)n1cnc2c(N)ncnc21,CCCCCCC(C(C)O)n1cnc2c1ncnc2N,CCCCCCC(C(C)O)N1C=NC2=C1N=CN=C2N,-2.25
IOUNQDKNJZEDEP-UHFFFAOYSA-N,phosalone;  zolone,CCOP(=S)(OCC)SCn1c(=O)oc2cc(Cl)ccc21,CCOP(=S)(OCC)SCn1c2ccc(cc2oc1=O)Cl,ClC=1C=C2OC(=O)N(C2=CC1)CSP(=S)(OCC)OCC,-5.2315
IOUPEELXVYPCPG-UHFFFAOYSA-N,Valylglycine,CC(C)C(N)C(=O)NCC(=O)O,CC(C)C(C(=O)NCC(=O)O)N,CC(C)C(N)C(=O)NCC(=O)O,0.4579
IOUVKUPGCMBWBT-UHFFFAOYSA-N,Phloridzin,O=C(CCc1ccc(O)cc1)c1c(O)cc(O)cc1O[C@@H]1O[C@H](CO)[C@@H](O)[C@H](O)[C@H]1O,c1cc(ccc1CCC(=O)c2c(cc(cc2O[C@H]3[C@@H]([C@H]([C@@H]([C@H](O3)CO)O)O)O)O)O)O,OC[C@H]1O[C@H]([C@@H]([C@H]([C@@H]1O)O)O)OC=2C=C(C=C(C2C(=O)CCC=3C=CC(=CC3)O)O)O,-2.64
IOVGROKTTNBUGK-UHFFFAOYSA-N,ritodrine,C[C@H](NCCc1ccc(O)cc1)[C@H](O)c1ccc(O)cc1,C[C@@H]([C@@H](c1ccc(cc1)O)O)NCCc2ccc(cc2)O,C[C@@H]([C@@H](C1=CC=C(C=C1)O)O)NCCC2=CC=C(C=C2)O,-0.645497845
IOWGWFDLSDBRRB-UHFFFAOYSA-N,,COc1cc2ncnc(Nc3ccc(OCc4ccccn4)c(C)c3)c2cc1OCCCN(C)C,Cc1cc(ccc1OCc2ccccn2)Nc3c4cc(c(cc4ncn3)OC)OCCCN(C)C,COC=1C=C2N=CN=C(C2=CC1OCCCN(C)C)NC=3C=CC(=C(C3)C)OCC=4C=CC=CN4,-3.6382722000000003
IOXAXYHXMLCCJJ-UHFFFAOYSA-N,Oxasulfuron,Cc1cc(C)nc(NC(=O)NS(=O)(=O)c2ccccc2C(=O)OC2COC2)n1,Cc1cc(nc(n1)NC(=O)NS(=O)(=O)c2ccccc2C(=O)OC3COC3)C,S(=O)(=O)(NC(=O)NC=1N=C(C=C(N1)C)C)C=2C(=CC=CC2)C(=O)OC3COC3,-3.8930000000000002
IOYNQIMAUDJVEI-UHFFFAOYSA-N,,CC/C(=N\OC/C=C/Cl)C1=C(O)CC(C2CCOCC2)CC1=O,CC/C(=N\OC/C=C/Cl)/C1=C(CC(CC1=O)C2CCOCC2)O,CC/C(=N\OC/C=C/Cl)/C1=C(CC(CC1=O)C2CCOCC2)O,-2.9