inchikey,Name,SMILES_stand,SMILES,kekSmiles,logS
FWJGVJYZMZGFQF-UHFFFAOYSA-N,1-<hydroxyimino-(seqtrans)>-1-phenyl-acetone,CC(=O)C(N=O)c1ccccc1,CC(=O)C(c1ccccc1)N=O,N(=O)C(C1=CC=CC=C1)C(=O)C,-2.3680000000000003
FWJKNZONDWOGMI-UHFFFAOYSA-N,"metharbital;  5,5-diethyl-1-methylbarbituric acid",CCC1(CC)C(=O)NC(=O)N(C)C1=O,CCC1(C(=O)NC(=O)N(C1=O)C)CC,O=C1N(C(=O)C(C(=O)N1)(CC)CC)C,-2.165
FWKQNCXZGNBPFD-UHFFFAOYSA-N,"Azulene, 1,4-dimethyl-7-(1-methylethyl)-",Cc1ccc(C(C)C)cc2c(C)ccc1-2,Cc1ccc(cc-2c(ccc12)C)C(C)C,CC(C)C=1C=CC(=C2C=CC(=C2C1)C)C,-5.4751
FWLNZTGNVCRKCU-UHFFFAOYSA-N,"1-[(4-chlorophenyl)methyl]-5-fluoropyrimidine-2,4-dione",O=c1[nH]c(=O)n(Cc2ccc(Cl)cc2)cc1F,c1cc(ccc1Cn2cc(c(=O)[nH]c2=O)F)Cl,O=C1NC(=O)N(C=C1F)CC2=CC=C(C=C2)Cl,-3.492
FWLORMQUOWCQPO-UHFFFAOYSA-N,BENZALKONIUM CHLORIDE,CCCCCCCCCCCCCCCCCC[N+](C)(C)Cc1ccccc1,CCCCCCCCCCCCCCCCCC[N+](C)(C)Cc1ccccc1,C1=CC=CC(=C1)C[N+](CCCCCCCCCCCCCCCCCC)(C)C,-5.94
FWMIPUGQEDHQDG-UHFFFAOYSA-N,,O=CN(O)C(CCCc1ncccn1)CS(=O)(=O)N1CCC(Oc2ccc(Cl)cc2)CC1,c1cnc(nc1)CCCC(CS(=O)(=O)N2CCC(CC2)Oc3ccc(cc3)Cl)N(C=O)O,ON(C=O)C(CCCC=1N=CC=CN1)CS(=O)(=O)N2CCC(CC2)OC=3C=CC(=CC3)Cl,-4.721246400000001
FWOWMXFVAOPLTC-UHFFFAOYSA-N,,CCCCNc1nc(SCCC)nc2c1nnn2C1OC(/C=C/C(=O)O)C(O)C1O,CCCCNc1c2c(nc(n1)SCCC)n(nn2)C3C(C(C(O3)/C=C/C(=O)O)O)O,S(CCC)C=1N=C2C(=C(N1)NCCCC)N=NN2C3OC(C(C3O)O)/C=C/C(=O)O,-2.6925865
FWQBOLQXZBMLIQ-UHFFFAOYSA-N,,COc1cc2c(Nc3ncc(CC(=O)Nc4cc(F)cc(F)c4)s3)ncnc2cc1OCCCN1CCCC1CO,COc1cc2c(cc1OCCCN3CCCC3CO)ncnc2Nc4ncc(s4)CC(=O)Nc5cc(cc(c5)F)F,COC=1C=C2C(=NC=NC2=CC1OCCCN3CCCC3CO)NC4=NC=C(S4)CC(=O)NC=5C=C(C=C(C5)F)F,-2.7281584
FWQNYUYRXNWOOM-UHFFFAOYSA-N,"Propanedioic acid, nonyl-",CCCCCCCCCC(C(=O)O)C(=O)O,CCCCCCCCCC(C(=O)O)C(=O)O,OC(=O)C(CCCCCCCCC)C(=O)O,-3.3018
FWQSBFOLKXNXRV-UHFFFAOYSA-N,,COc1cc2ncc(C(N)=O)c(Nc3cccc(S(N)(=O)=O)c3)c2cc1OC,COc1cc2c(cc1OC)ncc(c2Nc3cccc(c3)S(=O)(=O)N)C(=O)N,COC=1C=C2N=CC(=C(C2=CC1OC)NC=3C=CC=C(C3)S(=O)(=O)N)C(=O)N,-5.1191864
FWRZLHHZFZRPHC-UHFFFAOYSA-N,,COc1cc2ncnc(Nc3cccc(Cl)c3F)c2cc1OCC1CCN(S(C)(=O)=O)CC1,COc1cc2c(cc1OCC3CCN(CC3)S(=O)(=O)C)c(ncn2)Nc4cccc(c4F)Cl,COC=1C=C2N=CN=C(C2=CC1OCC3CCN(CC3)S(=O)(=O)C)NC=4C=CC=C(C4F)Cl,-5.4867824
FWSGQOOMMXQHAG-UHFFFAOYSA-N,,N#Cc1ccc(C(=O)NCCS(=O)(=O)Cc2c(F)cccc2Cl)cc1,c1cc(c(c(c1)Cl)CS(=O)(=O)CCNC(=O)c2ccc(cc2)C#N)F,FC=1C=CC=C(C1CS(=O)(=O)CCNC(=O)C=2C=CC(=CC2)C#N)Cl,-4.537602
FWTBRYBHCBCJEQ-UHFFFAOYSA-N,C.I. DISPERSE ORANGE 13,Oc1ccc(/N=N/c2ccc(/N=N/c3ccccc3)c3ccccc23)cc1,c1ccc(cc1)/N=N/c2ccc(c3c2cccc3)/N=N/c4ccc(cc4)O,N(=N/C=1C=CC(=CC1)O)\C2=C3C(C=CC=C3)=C(C=C2)/N=N/C4=CC=CC=C4,-6.0089999999999995
FWWIHDABCUSHCT-UHFFFAOYSA-N,,Cc1ccc(NC(=O)c2ccnc(N3CCCC3)c2)cc1NC(=O)c1cccc(CN2CCN(C)CC2)c1,Cc1ccc(cc1NC(=O)c2cccc(c2)CN3CCN(CC3)C)NC(=O)c4ccnc(c4)N5CCCC5,CN1CCN(CC1)CC=2C=CC=C(C2)C(=O)NC=3C=C(C=CC3C)NC(=O)C=4C=CN=C(C4)N5CCCC5,-3.7695510999999997
FWZMBTIUIQUJFF-UHFFFAOYSA-N,butallylonal;  5-(2-bromoallyl)-5-sec-butylbarbituric  acid,C=C(Br)CC1(C(C)CC)C(=O)NC(=O)NC1=O,CCC(C)C1(C(=O)NC(=O)NC1=O)CC(=C)Br,CCC(C)C1(C(=O)NC(=O)NC1=O)CC(=C)Br,-2.65
FXAQZORUFUTDKI-UHFFFAOYSA-N,"Benzenesulfonamide, 4-(mannopyranosylamino)-",NS(=O)(=O)c1ccc(NC2C(O)OC(CO)C(O)C2O)cc1,c1cc(ccc1NC2C(C(C(OC2O)CO)O)O)S(=O)(=O)N,S(=O)(=O)(C1=CC=C(C=C1)NC2C(C(C(OC2O)CO)O)O)N,-0.9801
FXEWVKMVYBQMET-UHFFFAOYSA-N,,Cc1ccc(O)c2c1CCC2=O,Cc1ccc(c2c1CCC2=O)O,CC=1C=CC(=C2C1CCC2=O)O,-2.9586072999999997
FXFBOTYEXVTGGA-UHFFFAOYSA-N,D6-Anthrquinone Dye,Nc1c(OC2C=CC(N3CCCCCC3=O)=CC2)cc(O)c2c1C(=O)c1ccccc1C2=O,c1ccc2c(c1)C(=O)c3c(cc(c(c3C2=O)N)OC4CC=C(C=C4)N5CCCCCC5=O)O,C=12C(=C(C(=CC1O)OC3C=CC(=CC3)N4C(=O)CCCCC4)N)C(=O)C=5C(=CC=CC5)C2=O,-6.803
FXFISFDEMVDBSS-UHFFFAOYSA-N,"2-Furanacrolein, 5-nitro-, 2-(2-hydroxyethyl)sem",NC(=O)N(CCO)/N=C/C=C/c1ccc([N+](=O)[O-])o1,c1cc(oc1/C=C/C=N/N(CCO)C(=O)N)[N+](=O)[O-],O=[N+]([O-])C=1OC(=CC1)/C=C/C=N/N(CCO)C(=O)N,-3.11
FXFYOPQLGGEACP-UHFFFAOYSA-N,6-Methylcoumarin,Cc1ccc2oc(=O)ccc2c1,Cc1ccc2c(c1)ccc(=O)o2,C1=C(C=C2C=CC(=O)OC2=C1)C,-2.13
FXJSXNAIOUCSPT-UHFFFAOYSA-N,"3-Pyrazoline-5-thione, 1,3-dimethyl-2-phenyl-",Cc1cc(=S)n(C)n1-c1ccccc1,Cc1cc(=S)n(n1c2ccccc2)C,N1(N(C(=S)C=C1C)C)C2=CC=CC=C2,-1.6669
FXMWUTGUCAKGQL-UHFFFAOYSA-N,,COc1cc(CC(C)N)c(OC)cc1Br,CC(Cc1cc(c(cc1OC)Br)OC)N,CC(N)CC1=C(C=C(C(=C1)OC)Br)OC,0.7356
FXNNQKLPLOXENK-UHFFFAOYSA-N,Pentyl 3-bromo-4-hydroxybenzoate,CCCCCOC(=O)c1ccc(O)c(Br)c1,CCCCCOC(=O)c1ccc(c(c1)Br)O,CCCCCOC(=O)C1=CC(=C(C=C1)O)Br,-4.098
FXNYSZHYMGWWEZ-UHFFFAOYSA-N,Amisometradine,C=C(C)Cn1c(N)cc(=O)n(C)c1=O,CC(=C)Cn1c(cc(=O)n(c1=O)C)N,N1(C(=O)N(C(=O)C=C1N)C)CC(=C)C,-0.9895
FXPRTYODRQWLLM-UHFFFAOYSA-N,,Cc1ccc(-c2cn3cccnc3n2)cc1,Cc1ccc(cc1)c2cn3cccnc3n2,CC=1C=CC(=CC1)C2=CN3C=CC=NC3=N2,-3.60206
FXRCFWSUCFIHLF-UHFFFAOYSA-N,"2,4,7-Pteridinetriamine",Nc1cnc2c(N)nc(N)nc2n1,c1c(nc2c(n1)c(nc(n2)N)N)N,NC=1C=NC2=C(N1)N=C(N=C2N)N,-2.9019999999999997
FXUHWIMCSWIHPC-UHFFFAOYSA-N,,CCn1c2ccccc2c2cc(NC(=O)NCCc3ccccn3)ccc21,CCn1c2ccccc2c3c1ccc(c3)NC(=O)NCCc4ccccn4,CCN1C=2C=CC=CC2C3=C1C=CC(=C3)NC(=O)NCCC=4C=CC=CN4,-6.1307683
FXVDWKZNFZMSOU-UHFFFAOYSA-N,"2,2,5,5-TETRAMETHYL-3-HEXYNE",CC(C)(C)C#CC(C)(C)C,CC(C)(C)C#CC(C)(C)C,CC(C)(C)C#CC(C)(C)C,-3.83
FXVNVCISKKOMKV-UHFFFAOYSA-N,AZIPROTRYNE,CSc1nc(N=[N+]=N)nc(NC(C)C)n1,CC(C)Nc1nc(nc(n1)SC)N=[N+]=N,N=[N+]=NC1=NC(=NC(=N1)NC(C)C)SC,-3.612
FXXJUKWOANBURT-UHFFFAOYSA-N,,CCn1c2ccccc2c2cc(NC(=O)CCOC)ccc21,CCn1c2ccccc2c3c1ccc(c3)NC(=O)CCOC,CCN1C=2C=CC=CC2C3=C1C=CC(=C3)NC(=O)CCOC,-4.3767507000000005
FXXSGZBPAJRJHH-UHFFFAOYSA-N,"4-[(E)-2-[2-chloro-5-(trifluoromethyl)phenyl]diazen-1-yl]-N-(2,5-dichloro-4-{4-[(E)-2-[2-chloro-5-(trifluoromethyl)phenyl]diazen-1-yl]-3-hydroxynaphthalene-2-amido}phenyl)-3-hydroxynaphthalene-2-carboxamide",O=C(Nc1cc(Cl)c(NC(=O)C2=Cc3ccccc3/C(=N\Nc3cc(C(F)(F)F)ccc3Cl)C2=O)cc1Cl)C1=Cc2ccccc2/C(=N/Nc2cc(C(F)(F)F)ccc2Cl)C1=O,c1ccc\2c(c1)C=C(C(=O)/C2=N\Nc3cc(ccc3Cl)C(F)(F)F)C(=O)Nc4cc(c(cc4Cl)NC(=O)C5=Cc6ccccc6/C(=N\Nc7cc(ccc7Cl)C(F)(F)F)/C5=O)Cl,FC(F)(F)C=1C=CC(=C(C1)N/N=C/2\C(=O)C(=CC3=C2C=CC=C3)C(=O)NC=4C=C(C(=CC4Cl)NC(=O)C5=CC=6C=CC=CC6/C(=N\NC=7C=C(C=CC7Cl)C(F)(F)F)/C5=O)Cl)Cl,-7.692121686
FYBGNQLZFDLICM-UHFFFAOYSA-N,,COc1cc2c(Nc3ccc(NC(=O)c4cccc(Cl)c4)nc3)ncnc2cc1OCCCCNC(C)(C)CCO,CC(C)(CCO)NCCCCOc1cc2c(cc1OC)c(ncn2)Nc3ccc(nc3)NC(=O)c4cccc(c4)Cl,COC=1C=C2C(=NC=NC2=CC1OCCCCNC(C)(C)CCO)NC=3C=CC(=NC3)NC(=O)C=4C=CC=C(C4)Cl,-5.0589858
FYDMOUSBLGOESH-UHFFFAOYSA-N,,Cc1ncc(-c2ccnc(Nc3ccc(NS(C)(=O)=O)cc3)n2)n1C,Cc1ncc(n1C)c2ccnc(n2)Nc3ccc(cc3)NS(=O)(=O)C,CC1=NC=C(N1C)C=2C=CN=C(N2)NC=3C=CC(=CC3)NS(=O)(=O)C,-4.5686362
FYDOORKXBWEKQM-UHFFFAOYSA-N,,CN(C)C1C(=O)/C(=C(/N)O)C(=O)C2(O)C(=O)C3=C(O)c4c(O)cccc4C(C)(O)C3C(O)C12,CC1(c2cccc(c2C(=C3C1C(C4C(C(=O)/C(=C(/N)\O)/C(=O)C4(C3=O)O)N(C)C)O)O)O)O,O=C1C2=C(C3=C(C=CC=C3O)C(C2C(C4C1(C(=O)/C(=C(/O)\N)/C(=O)C4N(C)C)O)O)(O)C)O,-2.6630000000000003
FYEHYMARPSSOBO-UHFFFAOYSA-N,ROSOLIC ACID,O=C1C=CC(=C(c2ccc(O)cc2)c2ccc(O)cc2)C=C1,c1cc(ccc1C(=C2C=CC(=O)C=C2)c3ccc(cc3)O)O,OC=1C=CC(=CC1)C(=C2C=CC(=O)C=C2)C=3C=CC(=CC3)O,-2.3837
FYFDQJRXFWGIBS-UHFFFAOYSA-N,p-dinitrobenzene,O=[N+]([O-])c1ccc([N+](=O)[O-])cc1,c1cc(ccc1[N+](=O)[O-])[N+](=O)[O-],O=[N+]([O-])C=1C=CC(=CC1)[N+](=O)[O-],-3.39
FYHGUIRTXYMZCC-UHFFFAOYSA-N,,CNc1nc(Nc2ccc(S(C)(=O)=O)cc2)ncc1C#N,CNc1c(cnc(n1)Nc2ccc(cc2)S(=O)(=O)C)C#N,CNC=1N=C(N=CC1C#N)NC=2C=CC(=CC2)S(=O)(=O)C,-5.4317983
FYHHVNNOLAJLBC-UHFFFAOYSA-N,,NS(=O)(=O)c1ccc(-c2ccc(OCC(O)CCc3cccnc3)cc2Cl)cc1,c1cc(cnc1)CCC(COc2ccc(c(c2)Cl)c3ccc(cc3)S(=O)(=O)N)O,C=1C(=CC=C(C1)C=2C(=CC(=CC2)OCC(O)CCC=3C=NC=CC3)Cl)S(=O)(=O)N,-4.8370731
FYIJRJNNLDRIPU-UHFFFAOYSA-N,,O=C(O)CCCOc1cccc(NC(=O)Cc2cc(F)c3nc(Nc4cccc(F)c4)oc3c2)c1,c1cc(cc(c1)OCCCC(=O)O)NC(=O)Cc2cc3c(c(c2)F)nc(o3)Nc4cccc(c4)F,OC(=O)CCCOC=1C=CC=C(C1)NC(=O)CC=2C=C(C=3N=C(OC3C2)NC=4C=CC=C(C4)F)F,-3.6575773000000003
FYJJXENSONZJRG-UHFFFAOYSA-N,"N,N-dimethyl-3-[1-(phenylmethyl)cycloheptyl]oxypropan-1-amine",CN(C)CCCOC1(Cc2ccccc2)CCCCCC1,CN(C)CCCOC1(CCCCCC1)Cc2ccccc2,CN(C)CCCOC1(CCCCCC1)CC2=CC=CC=C2,-1.6195
FYJKEJZGNQVNLC-UHFFFAOYSA-N,N-(4-ethoxyphenyl)-3-hydroxy-2-naphthamide,CCOc1ccc(NC(=O)c2cc3ccccc3cc2O)cc1,CCOc1ccc(cc1)NC(=O)c2cc3ccccc3cc2O,CCOC=1C=CC(=CC1)NC(=O)C=2C=C3C=CC=CC3=CC2O,-5.3117702730000005
FYMHQCNFKNMJAV-UHFFFAOYSA-N,finafloxacin,N#Cc1c(N2C[C@@H]3NCCO[C@H]3C2)c(F)cc2c(=O)c(C(=O)O)cn(C3CC3)c12,c1c2c(c(c(c1F)N3C[C@H]4[C@H](C3)OCCN4)C#N)n(cc(c2=O)C(=O)O)C5CC5,C1CC1N2C=C(C(=O)C=3C2=C(C(=C(C3)F)N4C[C@H]5[C@H](C4)OCCN5)C#N)C(=O)O,-3.5033984160000005
FYMOBFDUZIDKMI-UHFFFAOYSA-N,"2,2-dimethyl-3-(3-methylphenyl)propan-1-ol",Cc1cccc(CC(C)(C)CO)c1,Cc1cccc(c1)CC(C)(C)CO,CC=1C=CC=C(C1)CC(C)(C)CO,-2.826767735
FYMYPRLQJWPQCS-UHFFFAOYSA-N,,NC(=O)Nc1sc(-c2ccc(OCC3CCCO3)c(Cl)c2)cc1C(N)=O,c1cc(c(cc1c2cc(c(s2)NC(=O)N)C(=O)N)Cl)OCC3CCCO3,NC(=O)NC=1SC(=CC1C(=O)N)C=2C=CC(=C(C2)Cl)OCC3CCCO3,-5.9871628
FYNXIZMOOUMYDB-UHFFFAOYSA-N,,Oc1nnc(O)c2c1[nH]c1cc(C(F)(F)F)ccc12,c1cc2c(cc1C(F)(F)F)[nH]c3c2c(nnc3O)O,OC=1N=NC(=C2C1NC3=C2C=CC(=C3)C(F)(F)F)O,-2.613419
FYQDBHONZGPGCW-UHFFFAOYSA-N,,COc1cc2c(Nc3ccc(NC(=O)c4ccccc4)cc3)ncnc2cc1OCCNCC1CCCCC1,COc1cc2c(cc1OCCNCC3CCCCC3)ncnc2Nc4ccc(cc4)NC(=O)c5ccccc5,COC=1C=C2C(=NC=NC2=CC1OCCNCC3CCCCC3)NC=4C=CC(=CC4)NC(=O)C=5C=CC=CC5,-5.6575773
FYQGBXGJFWXIPP-UHFFFAOYSA-N,Hydroprene,CCOC(=O)/C=C(C)/C=C/CC(C)CCCC(C)C,CCOC(=O)/C=C(\C)/C=C/CC(C)CCCC(C)C,O=C(OCC)/C=C(/C=C/CC(C)CCCC(C)C)\C,-5.125
FYRBKFXCLCUUNM-UHFFFAOYSA-N,,O=C(NCCCc1ccccc1)c1cccc(CSc2ccccc2Cl)c1,c1ccc(cc1)CCCNC(=O)c2cccc(c2)CSc3ccccc3Cl,ClC=1C=CC=CC1SCC=2C=CC=C(C2)C(=O)NCCCC=3C=CC=CC3,-6.6777807000000005
FYUIEFVEQGWFII-UHFFFAOYSA-N,sodium 3-[[4-[(2-ethoxy-5-methylphenyl)azo]-1-naphthyl]azo]benzenesulphonate,CCOc1ccc(C)cc1/N=N/c1ccc(/N=N/c2cccc(S(=O)(=O)O)c2)c2ccccc12,CCOc1ccc(cc1/N=N/c2ccc(c3c2cccc3)/N=N/c4cccc(c4)S(=O)(=O)O)C,CCOC=1C=CC(=CC1/N=N/C=2C=CC(=C3C2C=CC=C3)/N=N/C=4C=CC=C(C4)S(=O)(=O)O)C,-1.847067772
FYVOTMMSGKWFPK-UHFFFAOYSA-N,7-aminonaphthalene-1-sulfonic acid,Nc1ccc2cccc(S(=O)(=O)O)c2c1,c1cc2ccc(cc2c(c1)S(=O)(=O)O)N,NC1=CC2=C(C=CC=C2S(=O)(=O)O)C=C1,-2.54
FYXOJUDWIJMZSG-UHFFFAOYSA-N,,CSc1cc(NC(=O)C(C)(O)C(F)(F)F)ccc1S(=O)(=O)c1ccc(C(=O)N(C)C)cc1,CC(C(=O)Nc1ccc(c(c1)SC)S(=O)(=O)c2ccc(cc2)C(=O)N(C)C)(C(F)(F)F)O,CSC=1C=C(C=CC1S(=O)(=O)C=2C=CC(=CC2)C(=O)N(C)C)NC(=O)C(C)(O)C(F)(F)F,-3.49485
FYZBOYWSHKHDMT-UHFFFAOYSA-N,Benfuracarb,CCOC(=O)CCN(SN(C)C(=O)Oc1cccc2c1OC(C)(C)C2)C(C)C,CCOC(=O)CCN(C(C)C)SN(C)C(=O)Oc1cccc2c1OC(C2)(C)C,CCOC(=O)CCN(SN(C)C(=O)OC=1C=CC=C2C1OC(C2)(C)C)C(C)C,-4.71
FZBSTAVCYOMFMD-UHFFFAOYSA-N,"2,4',5-Trichlorodiphenyl ether",Clc1ccc(Oc2cc(Cl)ccc2Cl)cc1,c1cc(ccc1Oc2cc(ccc2Cl)Cl)Cl,C=1(C=C(C=CC1Cl)Cl)OC=2C=CC(=CC2)Cl,-5.44
FZBXGZBXWFNCQY-UHFFFAOYSA-N,n-(2-benzoyloxyacetyl)hexamethyleneimine,O=C(OCC(=O)N1CCCCCC1)c1ccccc1,c1ccc(cc1)C(=O)OCC(=O)N2CCCCCC2,O=C(OCC(=O)N1CCCCCC1)C2=CC=CC=C2,-2.542
FZEIWORKISALCO-UHFFFAOYSA-N,"Benzamide, 2-(2-propenyloxy)-",C=CCOc1ccccc1C(N)=O,C=CCOc1ccccc1C(=O)N,NC(=O)C=1C=CC=CC1OCC=C,-2.22715
FZERHIULMFGESH-UHFFFAOYSA-N,Acetanilide,CC(=O)Nc1ccccc1,CC(=O)Nc1ccccc1,O=C(NC1=CC=CC=C1)C,-1.33
FZHQDMCSXDSXAY-UHFFFAOYSA-N,,Cc1ccc(NC(=O)c2cc(N3CCOCC3)cc(C(F)(F)F)c2)cc1NC(=O)c1cccc(OC2CCNCC2)c1,Cc1ccc(cc1NC(=O)c2cccc(c2)OC3CCNCC3)NC(=O)c4cc(cc(c4)N5CCOCC5)C(F)(F)F,CC=1C=CC(=CC1NC(=O)C=2C=CC=C(C2)OC3CCNCC3)NC(=O)C=4C=C(C=C(C4)C(F)(F)F)N5CCOCC5,-4.4202164
FZJGZCSVWGKDAK-UHFFFAOYSA-N,,Cc1cc([N+](=O)[O-])c([N+](=O)[O-])cc1[N+](=O)[O-],Cc1cc(c(cc1[N+](=O)[O-])[N+](=O)[O-])[N+](=O)[O-],C1=C(C(=CC(=C1[N+](=O)[O-])[N+](=O)[O-])[N+](=O)[O-])C,-3.1660000000000004
FZJUFJKVIYFBSY-UHFFFAOYSA-N,3-(4-tert-butylphenyl)propanal,CC(C)(C)c1ccc(CCC=O)cc1,CC(C)(C)c1ccc(cc1)CCC=O,CC(C)(C)C=1C=CC(=CC1)CCC=O,-3.1589164530000002
FZKBWLLAKJMRCL-UHFFFAOYSA-N,,N#Cc1ccccc1NS(=O)(=O)c1cc(Cl)c(Cl)cc1Cl,c1ccc(c(c1)C#N)NS(=O)(=O)c2cc(c(cc2Cl)Cl)Cl,ClC=1C=C(C(=CC1Cl)S(=O)(=O)NC=2C=CC=CC2C#N)Cl,-2.8601209
FZLJIXUUQNYCNR-UHFFFAOYSA-N,,COc1cc(C(=O)NS(=O)(=O)c2ccccc2C)ccc1Cc1c[nH]c2ccc(NC(=O)CC3CCCC3)cc12,Cc1ccccc1S(=O)(=O)NC(=O)c2ccc(c(c2)OC)Cc3c[nH]c4c3cc(cc4)NC(=O)CC5CCCC5,COC=1C=C(C=CC1CC2=CNC3=C2C=C(C=C3)NC(=O)CC4CCCC4)C(=O)NS(=O)(=O)C=5C=CC=CC5C,-5.552842
FZLOTQMQISYYEK-UHFFFAOYSA-N,"Benzoic acid, 2,5-dihydroxy-4-methyl-",Cc1cc(O)c(C(=O)O)cc1O,Cc1cc(c(cc1O)C(=O)O)O,C=1(C=C(C(=CC1O)C)O)C(=O)O,-2.362
FZLRPSHQNAHYAG-UHFFFAOYSA-N,"Naproxen [N,N-bis(2-hydroxyethyl)carbamoyl]methyl ester",COc1ccc2cc(C(C)C(=O)OCC(=O)N(CCO)CCO)ccc2c1,CC(c1ccc2cc(ccc2c1)OC)C(=O)OCC(=O)N(CCO)CCO,COC1=CC=C2C=C(C=CC2=C1)C(C)C(=O)OCC(=O)N(CCO)CCO,-2.96
FZQMJOOSLXFQSU-UHFFFAOYSA-N,"(3-{3,5-bis[3-(dimethylamino)propyl]-1,3,5-triazinan-1-yl}propyl)dimethylamine",CN(C)CCCN1CN(CCCN(C)C)CN(CCCN(C)C)C1,CN(C)CCCN1CN(CN(C1)CCCN(C)C)CCCN(C)C,CN(C)CCCN1CN(CN(C1)CCCN(C)C)CCCN(C)C,0.164206535
FZRBKIRIBLNOAM-UHFFFAOYSA-N,Kinoprene,C#CCOC(=O)/C=C(C)/C=C/CC(C)CCCC(C)C,CC(C)CCCC(C)C/C=C/C(=C/C(=O)OCC#C)/C,CC(C)CCCC(C)C/C=C/C(=C/C(=O)OCC#C)/C,-4.72395
FZRVESKHDSNKAC-UHFFFAOYSA-N,,Cc1ncc(-c2ccc(C(=O)N3CCN(S(=O)(=O)c4ccc5cc(Cl)ccc5c4)CC3)cc2)[nH]1,Cc1[nH]c(cn1)c2ccc(cc2)C(=O)N3CCN(CC3)S(=O)(=O)c4ccc5cc(ccc5c4)Cl,CC1=NC=C(N1)C=2C=CC(=CC2)C(=O)N3CCN(CC3)S(=O)(=O)C=4C=CC=5C=C(C=CC5C4)Cl,-5.6126102
FZSVSABTBYGOQH-UHFFFAOYSA-N,"thiofanox;  3,3-dimethyl-1-(methylthio)-2-butanone o-[(methylamino)carbonyl]oxime",CNC(=O)O/N=C(/CSC)C(C)(C)C,CC(C)(C)/C(=N\OC(=O)NC)/CSC,S(C/C(=N\OC(=O)NC)/C(C)(C)C)C,-1.62
FZUWYUIYVKESIP-UHFFFAOYSA-N,"9,9-dimethyldecanoic acid",CC(C)(C)CCCCCCCC(=O)O,CC(C)(C)CCCCCCCC(=O)O,CC(C)(C)CCCCCCCC(=O)O,-2.1109999999999998
FZVBWMHVYJDTIN-UHFFFAOYSA-N,,COc1cc2c(Nc3ncc(C(O)C(=O)Nc4ccc(F)c(F)c4)s3)ncnc2cc1OCCCN1CCOCC1,COc1cc2c(cc1OCCCN3CCOCC3)ncnc2Nc4ncc(s4)C(C(=O)Nc5ccc(c(c5)F)F)O,COC=1C=C2C(=NC=NC2=CC1OCCCN3CCOCC3)NC4=NC=C(S4)C(O)C(=O)NC=5C=CC(=C(C5)F)F,-6.958607300000001
FZXBZIRTFXICCH-UHFFFAOYSA-N,,NS(=O)(=O)c1ccc(-c2cc3cccc(C(=O)NCc4cccs4)c3o2)cc1,c1cc2cc(oc2c(c1)C(=O)NCc3cccs3)c4ccc(cc4)S(=O)(=O)N,NS(=O)(=O)C=1C=CC(=CC1)C2=CC=3C=CC=C(C3O2)C(=O)NCC4=CC=CS4,-5.721246400000001
FZXISNSWEXTPMF-UHFFFAOYSA-N,"terbutylazine;  2-tert-butylamino-4-chloro-6-ethylamino-1,3,5-triazine",CCNc1nc(Cl)nc(NC(C)(C)C)n1,CCNc1nc(nc(n1)Cl)NC(C)(C)C,CCNC1=NC(=NC(=N1)Cl)NC(C)(C)C,-4.416
FZYOVNIOYYPUPY-UHFFFAOYSA-N,Rifampin,COC1/C=C\OC2(C)Oc3c(C)c(O)c4c(c3C2=O)C(=O)/C(=C/NN2CCN(C)CC2)C(=C4O)NC(=O)/C(C)=C\C=C/C(C)C(O)C(C)C(O)C(C)C(OC(C)=O)C1C,Cc1c(c2c3c4c1OC(C4=O)(O/C=C\C(C(C(C(C(C(C(C(\C=C/C=C(\C(=O)NC(=C2O)/C(=C\NN5CCN(CC5)C)/C3=O)/C)C)O)C)O)C)OC(=O)C)C)OC)C)O,O(C1C(C(C(C(C(\C=C/C=C(\C(=O)NC\2=C(C3=C(C4=C(C(=C3O)C)OC(C4=O)(O/C=C\C(C1C)OC)C)C(=O)/C2=C/NN5CCN(CC5)C)O)/C)C)O)C)O)C)C(=O)C,-2.7689999999999997
FZYWGPMXEXYHJP-UHFFFAOYSA-N,,Cc1ccccc1NC(=O)Nc1ccc(NC(=O)OCc2cccc(OCCCC(=O)O)c2)cc1C(F)(F)F,Cc1ccccc1NC(=O)Nc2ccc(cc2C(F)(F)F)NC(=O)OCc3cccc(c3)OCCCC(=O)O,CC=1C=CC=CC1NC(=O)NC=2C=CC(=CC2C(F)(F)F)NC(=O)OCC=3C=CC=C(C3)OCCCC(=O)O,-4.7695511
GABQNAFEZZDSCM-UHFFFAOYSA-N,Cinnamyl Anthranilate,Nc1ccccc1C(=O)OC/C=C/c1ccccc1,c1ccc(cc1)/C=C/COC(=O)c2ccccc2N,O=C(OC/C=C/C=1C=CC=CC1)C=2C(=CC=CC2)N,-6.041
GABQPFWIQFRJSE-UHFFFAOYSA-N,triclabendazole sulfoxide,C[S+]([O-])c1nc2cc(Oc3cccc(Cl)c3Cl)c(Cl)cc2[nH]1,CS(=O)c1[nH]c2cc(c(cc2n1)Oc3cccc(c3Cl)Cl)Cl,CS(=O)C1=NC2=CC(=C(C=C2N1)Cl)OC3=C(C(=CC=C3)Cl)Cl,-5.574794954
GACFJCOPFMBYKV-UHFFFAOYSA-N,"BENZOIC ACID, 2-(ACETYLOXY)-, (1-OXOBUTOXY)METHY",CCCC(=O)OCOC(=O)c1ccccc1OC(C)=O,CCCC(=O)OCOC(=O)c1ccccc1OC(=O)C,C=1(C(=CC=CC1)OC(=O)C)C(=O)OCOC(=O)CCC,-2.904
GAFRFMIBHNLCRO-UHFFFAOYSA-N,,CCCN(CCC)CCNC(=O)c1ccc(Nc2cc(Nc3cc(C)ccc3Cl)ncn2)cc1,CCCN(CCC)CCNC(=O)c1ccc(cc1)Nc2cc(ncn2)Nc3cc(ccc3Cl)C,CCCN(CCC)CCNC(=O)C=1C=CC(=CC1)NC=2C=C(N=CN2)NC=3C=C(C=CC3Cl)C,-4.6197888
GAGWJHPBXLXJQN-UHFFFAOYSA-N,capecitabine,CCCCCOC(=O)Nc1nc(=O)n([C@@H]2O[C@H](C)[C@@H](O)[C@H]2O)cc1F,CCCCCOC(=O)Nc1c(cn(c(=O)n1)[C@H]2[C@@H]([C@@H]([C@H](O2)C)O)O)F,CCCCCOC(=O)NC1=NC(=O)N(C=C1F)[C@H]2[C@@H]([C@@H]([C@H](O2)C)O)O,-1.140544301
GAHYPJCOJPUNBE-UHFFFAOYSA-N,,COc1cc2c(Nc3ccc(Oc4cccnc4)nc3)ncnc2cc1OCCCN1CCOCC1,COc1cc2c(cc1OCCCN3CCOCC3)ncnc2Nc4ccc(nc4)Oc5cccnc5,COC=1C=C2C(=NC=NC2=CC1OCCCN3CCOCC3)NC=4C=CC(=NC4)OC=5C=CC=NC5,-4.05061
GAIFAPDHLCPUMF-UHFFFAOYSA-N,AKH-7088,COC/C(=N\OCC(=O)OC)c1cc(Oc2ccc(C(F)(F)F)cc2Cl)ccc1[N+](=O)[O-],COC/C(=N\OCC(=O)OC)/c1cc(ccc1[N+](=O)[O-])Oc2ccc(cc2Cl)C(F)(F)F,[N+](=O)(C=1C(=CC(=CC1)OC=2C(=CC(=CC2)C(F)(F)F)Cl)/C(=N/OCC(=O)OC)/COC)[O-],-5.678
GAKJKGSFCZAJNW-UHFFFAOYSA-N,,COc1cc2c(Nc3ncc(CC(=O)Nc4cc(F)cc(F)c4)s3)ncnc2cc1OCC1CCN(C)CC1,CN1CCC(CC1)COc2cc3c(cc2OC)c(ncn3)Nc4ncc(s4)CC(=O)Nc5cc(cc(c5)F)F,COC=1C=C2C(=NC=NC2=CC1OCC3CCN(CC3)C)NC4=NC=C(S4)CC(=O)NC=5C=C(C=C(C5)F)F,-2.79588
GAKMQHDJQHZUTJ-UHFFFAOYSA-N,Fluocortolone,C[C@@H]1C[C@H]2[C@@H]3C[C@H](F)C4=CC(=O)C=C[C@]4(C)[C@H]3[C@@H](O)C[C@]2(C)[C@H]1C(=O)CO,C[C@@H]1C[C@H]2[C@@H]3C[C@@H](C4=CC(=O)C=C[C@@]4([C@H]3[C@H](C[C@@]2([C@H]1C(=O)CO)C)O)C)F,C[C@@H]1C[C@H]2[C@@H]3C[C@@H](C4=CC(=O)C=C[C@@]4([C@H]3[C@H](C[C@@]2([C@H]1C(=O)CO)C)O)C)F,-3.2039999999999997
GALUWKOPKOQNTD-UHFFFAOYSA-N,,CN(C)CC(O)COc1ccc(Nc2nccc(N3CCc4ccccc43)n2)cc1,CN(C)CC(COc1ccc(cc1)Nc2nccc(n2)N3CCc4c3cccc4)O,CN(C)CC(O)COC=1C=CC(=CC1)NC=2N=CC=C(N2)N3CCC4=C3C=CC=C4,-3.6575773000000003
GAMSALNRRSEVCU-UHFFFAOYSA-N,,CCCS(=O)(=O)N1CCCC(C(CS(=O)(=O)N2CCN(c3ccc(F)cc3)CC2)N(O)C=O)C1,CCCS(=O)(=O)N1CCCC(C1)C(CS(=O)(=O)N2CCN(CC2)c3ccc(cc3)F)N(C=O)O,CCCS(=O)(=O)N1CCCC(C1)C(CS(=O)(=O)N2CCN(CC2)C=3C=CC(=CC3)F)N(O)C=O,-4.2924298
GANODXWWQYHGKJ-UHFFFAOYSA-N,,COc1cc(Cn2c3ccccc3c(=O)c3ccc(C(N)=O)cc32)cc(OC)c1O,COc1cc(cc(c1O)OC)Cn2c3ccccc3c(=O)c4c2cc(cc4)C(=O)N,COC=1C=C(C=C(C1O)OC)CN2C=3C=CC=CC3C(=O)C4=C2C=C(C=C4)C(=O)N,-5.1505806
GAODDBNJCKQQDY-UHFFFAOYSA-N,"2-methyl-4,6-bis[(octylsulfanyl)methyl]phenol",CCCCCCCCSCc1cc(C)c(O)c(CSCCCCCCCC)c1,CCCCCCCCSCc1cc(c(c(c1)CSCCCCCCCC)O)C,CCCCCCCCSCC=1C=C(C(=C(C1)CSCCCCCCCC)O)C,-7.327000000000001
GAOSCOTXSREPHL-UHFFFAOYSA-N,N1-METHYL-N1-(2-PYRIDYL)SULFANILAMIDE,Cc1ccc(NS(=O)(=O)c2ccc(N)cc2)nc1,Cc1ccc(nc1)NS(=O)(=O)c2ccc(cc2)N,S(=O)(=O)(NC1=NC=C(C=C1)C)C2=CC=C(C=C2)N,-2.287
GAUBNQMYYJLWNF-UHFFFAOYSA-N,".beta.-Alanine, N-(carboxymethyl)-",O=C(O)CCNCC(=O)O,C(CNCC(=O)O)C(=O)O,C(=O)(CCNCC(=O)O)O,-0.7527
GAUZCKBSTZFWCT-UHFFFAOYSA-N,,[O-]/[N+](=N\c1ccccc1)c1ccccc1,c1ccc(cc1)/N=[N+](/c2ccccc2)\[O-],C1(=CC=CC=C1)/[N+](=N/C2=CC=CC=C2)/[O-],-5.297000000000001
GAVZUXBKQVMADB-UHFFFAOYSA-N,,O=C(Nc1ccccc1)NC1CC1,c1ccc(cc1)NC(=O)NC2CC2,O=C(NC1CC1)NC2=CC=CC=C2,-1.895
GAWKHTAHYFTCHE-UHFFFAOYSA-N,1-(trifluoromethyl)acridin-9-amine,Nc1c2ccccc2nc2cccc(C(F)(F)F)c12,c1ccc2c(c1)c(c3c(cccc3n2)C(F)(F)F)N,NC1=C2C=CC=CC2=NC=3C1=C(C=CC3)C(F)(F)F,-2.4775
GBABOYUKABKIAF-UHFFFAOYSA-N,vinorelbine tartrate,CCC1=C[C@@H]2CN(C1)Cc1c([nH]c3ccccc13)[C@@](C(=O)OC)(c1cc3c(cc1OC)N(C)[C@H]1[C@@](O)(C(=O)OC)[C@H](OC(C)=O)[C@]4(CC)C=CCN5CC[C@]31[C@@H]54)C2,CCC1=C[C@H]2C[C@@](c3c(c4ccccc4[nH]3)CN(C2)C1)(c5cc6c(cc5OC)N([C@@H]7[C@]68CCN9[C@H]8[C@@](C=CC9)([C@H]([C@@]7(C(=O)OC)O)OC(=O)C)CC)C)C(=O)OC,CCC1=C[C@H]2C[C@@](C3=C(C4=CC=CC=C4N3)CN(C2)C1)(C5=C(C=C6C(=C5)[C@]78CCN9[C@H]7[C@@](C=CC9)([C@H]([C@@]([C@@H]8N6C)(C(=O)OC)O)OC(=O)C)CC)OC)C(=O)OC,-3.031513719
GBAJQUQTRTUWDV-UHFFFAOYSA-N,"(1E,2Z)-4-Ethyl-N,N'-dihydroxy-1,2-cyclohexanediimine",CCC1CCC(=N\O)/C(=N\O)C1,CCC1CC/C(=N\O)/C(=N\O)/C1,CCC1CC/C(=N\O)/C(=N\O)/C1,-1.83
GBAWQJNHVWMTLU-UHFFFAOYSA-N,Heptenophos,COP(=O)(OC)OC1=C(Cl)C2C=CCC12,COP(=O)(OC)OC1=C(C2C1CC=C2)Cl,COP(=O)(OC)OC1=C(C2C1CC=C2)Cl,-2.001
GBBDRAQIJBCOBP-UHFFFAOYSA-N,"11-methyldodecyl 2-{[(3,5-di-tert-butyl-4-hydroxyphenyl)methyl]sulfanyl}acetate",CC(C)CCCCCCCCCCOC(=O)CSCc1cc(C(C)(C)C)c(O)c(C(C)(C)C)c1,CC(C)CCCCCCCCCCOC(=O)CSCc1cc(c(c(c1)C(C)(C)C)O)C(C)(C)C,CC(C)CCCCCCCCCCOC(=O)CSCC=1C=C(C(=C(C1)C(C)(C)C)O)C(C)(C)C,-6.789794763
GBBSUAFBMRNDJC-UHFFFAOYSA-N,zopiclone,CN1CCN(C(=O)OC2c3nccnc3C(=O)N2c2ccc(Cl)cn2)CC1,CN1CCN(CC1)C(=O)OC2c3c(nccn3)C(=O)N2c4ccc(cn4)Cl,CN1CCN(CC1)C(=O)OC2C3=NC=CN=C3C(=O)N2C4=NC=C(C=C4)Cl,-3.51055618
GBCGXHMZDCDIOP-UHFFFAOYSA-N,,COc1cc2c(Oc3cnc4[nH]c(C)cc4c3)ncnc2cc1OCCCN1CCCCC1,Cc1cc2cc(cnc2[nH]1)Oc3c4cc(c(cc4ncn3)OCCCN5CCCCC5)OC,COC=1C=C2C(=NC=NC2=CC1OCCCN3CCCCC3)OC=4C=NC=5NC(=CC5C4)C,-3.0695604
GBDJNEJIVMFTOJ-UHFFFAOYSA-N,"N-(4-chloro-2,5-dimethoxyphenyl)-3-hydroxy-4-[(E)-2-[2-methoxy-5-(phenylcarbamoyl)phenyl]diazen-1-yl]naphthalene-2-carboxamide",COc1cc(NC(=O)C2=Cc3ccccc3/C(=N/Nc3cc(C(=O)Nc4ccccc4)ccc3OC)C2=O)c(OC)cc1Cl,COc1ccc(cc1N/N=C\2/c3ccccc3C=C(C2=O)C(=O)Nc4cc(c(cc4OC)Cl)OC)C(=O)Nc5ccccc5,COC=1C=CC(=CC1N/N=C/2\C(=O)C(=CC3=C2C=CC=C3)C(=O)NC=4C=C(C(=CC4OC)Cl)OC)C(=O)NC=5C=CC=CC5,-7.84678017