inchikey,Name,SMILES_stand,SMILES,kekSmiles,logS
JCFJSQZXNOMXCP-UHFFFAOYSA-N,"(~{N}~{E})-~{N}-[(3~{Z})-3-hydroxyimino-1,7,7-trimethyl-2-bicyclo[2.2.1]heptanylidene]hydroxylamine",CC12CCC(C(=N\O)/C1=N\O)C2(C)C,CC1(C\2CCC1(/C(=N/O)/C2=N/O)C)C,C\12(C(C(/C(=N\O)/C1=N\O)CC2)(C)C)C,-2.52
JCFKRUZAFCDFLL-UHFFFAOYSA-N,,CCOc1ccc(NC(=O)CCc2cc(=O)n(-c3ccc(C(=O)OC(C)(C)C)cn3)[nH]2)cc1,CCOc1ccc(cc1)NC(=O)CCc2cc(=O)n([nH]2)c3ccc(cn3)C(=O)OC(C)(C)C,CCOC=1C=CC(=CC1)NC(=O)CCC2=CC(=O)N(N2)C=3C=CC(=CN3)C(=O)OC(C)(C)C,-6.522878700000001
JCGKPZOXKYMWJS-UHFFFAOYSA-N,,COC1(c2cncc(OCC#Cc3ccccc3)c2)CCOCC1,COC1(CCOCC1)c2cc(cnc2)OCC#Cc3ccccc3,COC1(CCOCC1)C=2C=NC=C(C2)OCC#CC=3C=CC=CC3,-3.5146707999999998
JCIWPFFYCIUZJN-UHFFFAOYSA-N,,CCN(Cc1cc(Br)ccc1OCc1ccccc1)c1ccc(C(=O)NCc2nnn[nH]2)cn1,CCN(Cc1cc(ccc1OCc2ccccc2)Br)c3ccc(cn3)C(=O)NCc4[nH]nnn4,CCN(CC=1C=C(C=CC1OCC=2C=CC=CC2)Br)C=3C=CC(=CN3)C(=O)NCC4=NN=NN4,-4.6716204
JCJNNHDZTLRSGN-UHFFFAOYSA-N,,OCc1c2ccccc2cc2ccccc12,c1ccc2c(c1)cc3ccccc3c2CO,OCC1=C2C(=CC=3C1=CC=CC3)C=CC=C2,-3.918
JCKYGMPEJWAADB-UHFFFAOYSA-N,Chlorambucil,O=C(O)CCCc1ccc(N(CCCl)CCCl)cc1,c1cc(ccc1CCCC(=O)O)N(CCCl)CCCl,OC(=O)CCCC1=CC=C(C=C1)N(CCCl)CCCl,-3.4
JCLHQFUTFHUXNN-UHFFFAOYSA-N,Ethyl_Biscoumacetate,CCOC(=O)C(c1c(O)c2ccccc2oc1=O)c1c(O)c2ccccc2oc1=O,CCOC(=O)C(c1c(c2ccccc2oc1=O)O)c3c(c4ccccc4oc3=O)O,CCOC(=O)C(C1=C(C2=C(OC1=O)C=CC=C2)O)C3=C(C4=C(OC3=O)C=CC=C4)O,-3.66
JCLVZNMACJXKBW-UHFFFAOYSA-N,,COc1cc2c(Nc3ccc(NC(=O)c4ccccc4)cc3)ncnc2cc1OCCCN1C=NCC1,COc1cc2c(cc1OCCCN3CCN=C3)ncnc2Nc4ccc(cc4)NC(=O)c5ccccc5,COC=1C=C2C(=NC=NC2=CC1OCCCN3CCN=C3)NC=4C=CC(=CC4)NC(=O)C=5C=CC=CC5,-3.3496925
JCMFJIHDWDKYIL-UHFFFAOYSA-N,"Propionic acid, 3-methoxy-, propyl ester",CCCOC(=O)CCOC,CCCOC(=O)CCOC,CCCOC(=O)CCOC,-0.6598
JCMIPNLNEAFFHI-UHFFFAOYSA-N,,CC(=O)Nc1ccc2ncnc(Nc3ccc(OCc4ccccn4)c(Cl)c3)c2c1,CC(=O)Nc1ccc2c(c1)c(ncn2)Nc3ccc(c(c3)Cl)OCc4ccccn4,CC(=O)NC=1C=CC=2N=CN=C(C2C1)NC=3C=CC(=C(C3)Cl)OCC=4C=CC=CN4,-6.161150900000001
JCMYEBPPMIUWCN-UHFFFAOYSA-N,"sodium (Z)-N-({3-[(4-amino-9,10-dioxo-3-sulfo-9,10-dihydroanthracen-1-yl)amino]-5-{[(Z)-(2-chloro-1-hydroxyethylidene)amino]methyl}-2,4,6-trimethylphenyl}methyl)-2-chloroethenecarboximidate",Cc1c(CNC(=O)CCl)c(C)c(Nc2cc(S(=O)(=O)O)c(N)c3c2C(=O)c2ccccc2C3=O)c(C)c1CNC(=O)CCl,Cc1c(c(c(c(c1CNC(=O)CCl)C)Nc2cc(c(c3c2C(=O)c4ccccc4C3=O)N)S(=O)(=O)O)C)CNC(=O)CCl,CC=1C(=C(C(=C(C1CNC(=O)CCl)C)NC=2C=C(C(=C3C2C(=O)C4=C(C=CC=C4)C3=O)N)S(=O)(=O)O)C)CNC(=O)CCl,-1.017775967
JCQLYHFGKNRPGE-UHFFFAOYSA-N,lactulose,OC[C@H]1O[C@](O)(CO)[C@@H](O)[C@@H]1O[C@@H]1O[C@H](CO)[C@H](O)[C@H](O)[C@H]1O,C([C@@H]1[C@@H]([C@@H]([C@H]([C@@H](O1)O[C@@H]2[C@H](O[C@@]([C@H]2O)(CO)O)CO)O)O)O)O,OC[C@H]1O[C@H]([C@@H]([C@H]([C@H]1O)O)O)O[C@@H]2[C@H](O[C@]([C@H]2O)(O)CO)CO,0.3487
JCRIDWXIBSEOEG-UHFFFAOYSA-N,"2,6-Dinitrophenol",O=[N+]([O-])c1cccc([N+](=O)[O-])c1O,c1cc(c(c(c1)[N+](=O)[O-])O)[N+](=O)[O-],[N+](=O)(C1=C(C(=CC=C1)[N+](=O)[O-])O)[O-],-1.55
JCTXKRPTIMZBJT-UHFFFAOYSA-N,"2,2,4-trimethylpentane-1,3-diol",CC(C)C(O)C(C)(C)CO,CC(C)C(C(C)(C)CO)O,CC(C)C(O)C(C)(C)CO,-0.8863
JCUXOCUTFJZYMO-UHFFFAOYSA-N,,COc1cc2c(NC(=O)Nc3c(C)cccc3Cl)ncnc2cc1OCC1CC(=O)N(C)C1,Cc1cccc(c1NC(=O)Nc2c3cc(c(cc3ncn2)OCC4CC(=O)N(C4)C)OC)Cl,COC=1C=C2C(=NC=NC2=CC1OCC3CN(C(=O)C3)C)NC(=O)NC=4C(=CC=CC4Cl)C,-5.5665564000000005
JCUZDQXWVYNXHD-UHFFFAOYSA-N,"2,2,4-Trimethylhexane-1,6-diamine",CC(CCN)CC(C)(C)CN,CC(CCN)CC(C)(C)CN,CC(CCN)CC(C)(C)CN,0.47817810899999996
JCVAFPCEYZSYDX-UHFFFAOYSA-N,,COc1ccc(CN(C)CC2OCCCCC(C)Oc3ccc(NC(=O)NC(C)C)cc3C(=O)N(C(C)CO)CC2C)cc1,CC1CCCCOC(C(CN(C(=O)c2cc(ccc2O1)NC(=O)NC(C)C)C(C)CO)C)CN(C)Cc3ccc(cc3)OC,COC1=CC=C(C=C1)CN(C)CC2OCCCCC(OC3=CC=C(C=C3C(=O)N(CC2C)C(C)CO)NC(=O)NC(C)C)C,-4.0
JCWNFZRFCCIFTK-UHFFFAOYSA-N,,COc1cc2c(Nc3ccc(NC(=O)c4cccc(Cl)c4)nc3)ncnc2cc1OCCCN1C=NCCC1,COc1cc2c(cc1OCCCN3CCCN=C3)ncnc2Nc4ccc(nc4)NC(=O)c5cccc(c5)Cl,COC=1C=C2C(=NC=NC2=CC1OCCCN3CCCN=C3)NC=4C=CC(=NC4)NC(=O)C=5C=CC=C(C5)Cl,-5.5850267
JCYPECIVGRXBMO-UHFFFAOYSA-N,"N,N-dimethyl-4-phenyldiazenylaniline",CN(C)c1ccc(/N=N/c2ccccc2)cc1,CN(C)c1ccc(cc1)/N=N/c2ccccc2,N(=N/C1=CC=CC=C1)\C=2C=CC(=CC2)N(C)C,-5.6215
JDALMONXIDWPEN-UHFFFAOYSA-N,,COC(=O)COc1ccc(C(=O)CN2CCN(c3ccncc3)CC2)cc1,COC(=O)COc1ccc(cc1)C(=O)CN2CCN(CC2)c3ccncc3,COC(=O)COC=1C=CC(=CC1)C(=O)CN2CCN(CC2)C=3C=CN=CC3,-2.8200001
JDBGDMZILOWAHV-UHFFFAOYSA-N,"sodium 4-[(dichloro-1,3,5-triazin-2-yl)amino]benzene-1-sulfonate",O=S(=O)(O)c1ccc(Nc2nc(Cl)nc(Cl)n2)cc1,c1cc(ccc1Nc2nc(nc(n2)Cl)Cl)S(=O)(=O)O,OS(=O)(=O)C=1C=CC(=CC1)NC=2N=C(N=C(N2)Cl)Cl,-1.38101546
JDBJGKZPEUFETH-UHFFFAOYSA-N,"1-(4-methoxyphenyl)-2-phenylethane-1,2-diol",COc1ccc(C(O)C(O)c2ccccc2)cc1,COc1ccc(cc1)C(C(c2ccccc2)O)O,COC1=CC=C(C=C1)C(O)C(O)C2=CC=CC=C2,-1.389
JDCULXHGRMPCAM-UHFFFAOYSA-N,"2-(phenylamino)-3,7-dihydropurin-6-one",O=c1[nH]c(Nc2ccccc2)nc2[nH]cnc12,c1ccc(cc1)Nc2[nH]c(=O)c3c(n2)[nH]cn3,O=C1NC(=NC2=C1N=CN2)NC3=CC=CC=C3,-4.119
JDDNJJBXFOLPKX-UHFFFAOYSA-N,4-PHENYL-2-NITROPHENOL,O=[N+]([O-])c1cc(-c2ccccc2)ccc1O,c1ccc(cc1)c2ccc(c(c2)[N+](=O)[O-])O,[N+](=O)(C=1C=C(C=CC1O)C=2C=CC=CC2)[O-],-4.41
JDDURTXKKBIAJU-UHFFFAOYSA-N,,CNC(=O)c1ccc(Nc2nccc(-c3cnc(C)n3C)n2)cc1,Cc1ncc(n1C)c2ccnc(n2)Nc3ccc(cc3)C(=O)NC,CNC(=O)C=1C=CC(=CC1)NC=2N=CC=C(N2)C3=CN=C(N3C)C,-4.3372421999999995
JDFOIACPOPEQLS-UHFFFAOYSA-N,"Cyclopentanecarboxylic acid, 1,2,2,3-tetramethyl",CC1CCC(C)(C(=O)O)C1(C)C,CC1CCC(C1(C)C)(C)C(=O)O,C1(C(C(CC1)C)(C)C)(C(=O)O)C,-3.0269999999999997
JDGCWFNQCUUYCA-UHFFFAOYSA-N,,COc1cc2c(Nc3cnc(NC(=O)c4ccc(Cl)cc4)nc3)ncnc2cc1OCCNCC1CC1,COc1cc2c(cc1OCCNCC3CC3)ncnc2Nc4cnc(nc4)NC(=O)c5ccc(cc5)Cl,COC=1C=C2C(=NC=NC2=CC1OCCNCC3CC3)NC=4C=NC(=NC4)NC(=O)C=5C=CC(=CC5)Cl,-4.19382
JDGHUGZBSXDIFB-UHFFFAOYSA-N,,COc1cc2c(Nc3ccc(/C=C/C(=O)Nc4ccccn4)cc3)ncnc2cc1OCCCN1CCOCC1,COc1cc2c(cc1OCCCN3CCOCC3)ncnc2Nc4ccc(cc4)/C=C/C(=O)Nc5ccccn5,COC=1C=C2C(=NC=NC2=CC1OCCCN3CCOCC3)NC=4C=CC(=CC4)/C=C/C(=O)NC=5C=CC=CN5,-5.3187587999999995
JDGJLPHFRJNJMN-UHFFFAOYSA-N,1-Isopropyl-2-methoxy-4-methylcyclohexane,COC1CC(C)CCC1C(C)C,CC1CCC(C(C1)OC)C(C)C,COC1CC(CCC1C(C)C)C,-3.9300872260000004
JDHILDINMRGULE-UHFFFAOYSA-N,"L-Histidine, 3-methyl-",Cn1cncc1C[C@H](N)C(=O)O,Cn1cncc1C[C@@H](C(=O)O)N,OC(=O)C(N)CC=1N(C=NC1)C,0.07405
JDHPGZFGERRDFK-UHFFFAOYSA-N,,COc1ccc(CCNc2nc(C)cc(NCc3ccc(C)cc3)n2)cc1,Cc1ccc(cc1)CNc2cc(nc(n2)NCCc3ccc(cc3)OC)C,COC=1C=CC(=CC1)CCNC=2N=C(C=C(N2)NCC=3C=CC(=CC3)C)C,-5.080921900000001
JDJPMLMZUBVDEP-UHFFFAOYSA-N,,Cc1ccc(NC(=O)c2ccnc(N3CCOCC3)c2)cc1NC(=O)c1cccc(CN2CCC(N)C2)c1,Cc1ccc(cc1NC(=O)c2cccc(c2)CN3CCC(C3)N)NC(=O)c4ccnc(c4)N5CCOCC5,CC=1C=CC(=CC1NC(=O)C=2C=CC=C(C2)CN3CCC(C3)N)NC(=O)C=4C=CN=C(C4)N5CCOCC5,-2.455932
JDJZAKLOMAHING-UHFFFAOYSA-N,"Decahydrospiro[furan-2(3H),5'-[4,7]methano[5h]indene]",C1CC2C3CC(C2C1)C1(CCCO1)C3,C1CC2C(C1)C3CC2CC34CCCO4,C1COC2(C1)CC3CC2C4C3CCC4,-5.94178056
JDKFMYVHRHQJLG-UHFFFAOYSA-N,,O=C(NCc1ccccc1)OCCN(C(=O)NCc1ccccc1)C1CCN(CCC(c2ccccc2)c2ccccc2)CC1,c1ccc(cc1)CNC(=O)N(CCOC(=O)NCc2ccccc2)C3CCN(CC3)CCC(c4ccccc4)c5ccccc5,O=C(NCC=1C=CC=CC1)OCCN(C2CCN(CC2)CCC(C=3C=CC=CC3)C=4C=CC=CC4)C(=O)NCC=5C=CC=CC5,-5.6777807000000005
JDMCEGLQFSOMQH-UHFFFAOYSA-N,"DL-Norleucine, N-acetyl-",CCCCC(NC(C)=O)C(=O)O,CCCCC(C(=O)O)NC(=O)C,CCCCC(NC(=O)C)C(=O)O,-0.68
JDNYZAWNISHXJL-UHFFFAOYSA-N,,COc1nc(Br)cnc1NS(=O)(=O)c1cccc2c(N(C)C)cccc12,CN(C)c1cccc2c1cccc2S(=O)(=O)Nc3c(nc(cn3)Br)OC,COC=1N=C(C=NC1NS(=O)(=O)C=2C=CC=C3C2C=CC=C3N(C)C)Br,-3.5243288
JDOMSHIFFAUNHK-UHFFFAOYSA-N,"L-365,209  (ANALOG 6 );  (CYCLIC HEXAPEPTIDE)",CCC(C)C1NC(=O)C(Cc2ccccc2)NC(=O)C2CCCN2C(=O)C(Cc2ccccc2)N(C)C(=O)C(CCCN)NC(=O)C2CCC=NN2C1=O,CCC(C)C1C(=O)N2C(CCC=N2)C(=O)NC(C(=O)N(C(C(=O)N3CCCC3C(=O)NC(C(=O)N1)Cc4ccccc4)Cc5ccccc5)C)CCCN,CCC(C)C1NC(=O)C(NC(=O)C2CCCN2C(=O)C(N(C(=O)C(NC(=O)C3CCC=NN3C1=O)CCCN)C)CC4=CC=CC=C4)CC5=CC=CC=C5,-2.7
JDORMWPGTNFOBC-UHFFFAOYSA-N,"7H-Purine-7-carboxylic acid, 1,2,3,6-tetrahydro-",COC(=O)n1cnc2c1c(=O)n(C)c(=O)n2C,Cn1c2c(c(=O)n(c1=O)C)n(cn2)C(=O)OC,COC(=O)N1C=NC2=C1C(=O)N(C(=O)N2C)C,-1.3085
JDPAKZCGVWMFFH-UHFFFAOYSA-N,,COCCOc1cc2nncc(Nc3cc(O)c(Cl)cc3F)c2cc1OC,COCCOc1cc2c(cc1OC)c(cnn2)Nc3cc(c(cc3F)Cl)O,COCCOC=1C=C2N=NC=C(C2=CC1OC)NC=3C=C(C(=CC3F)Cl)O,-7.0
JDPKCYMVSKDOGS-UHFFFAOYSA-N,"1,4-DICHLORONAPHTHALENE",Clc1ccc(Cl)c2ccccc12,c1ccc2c(c1)c(ccc2Cl)Cl,ClC=1C=CC(=C2C1C=CC=C2)Cl,-5.8015
JDQVBGQWADMTAM-UHFFFAOYSA-N,2-Phenylethyl 2-methylpropanoate,CC(C)C(=O)OCCc1ccccc1,CC(C)C(=O)OCCc1ccccc1,CC(C)C(=O)OCCC=1C=CC=CC1,-3.079882219
JDRBZPLXPWMRCD-UHFFFAOYSA-N,,CCc1ccc(NC(=O)c2ccc(C#N)cc2)cc1NC(=O)c1ccc(OC)c(OC)c1,CCc1ccc(cc1NC(=O)c2ccc(c(c2)OC)OC)NC(=O)c3ccc(cc3)C#N,CCC=1C=CC(=CC1NC(=O)C=2C=CC(=C(C2)OC)OC)NC(=O)C=3C=CC(=CC3)C#N,-5.1505806
JDSZWLGTNMAFKW-UHFFFAOYSA-N,,COc1cccc(CC(=O)Nc2ccc3[nH]ncc3c2)c1,COc1cccc(c1)CC(=O)Nc2ccc3c(c2)cn[nH]3,COC=1C=CC=C(C1)CC(=O)NC=2C=CC=3NN=CC3C2,-4.0457575
JDTACHFDAIXOIO-UHFFFAOYSA-N,,CCn1c(-c2ccnc(Nc3ccc(S(=O)(=O)NCCOc4cnsn4)cc3)n2)cnc1C,CCn1c(ncc1c2ccnc(n2)Nc3ccc(cc3)S(=O)(=O)NCCOc4cnsn4)C,CCN1C(=NC=C1C=2C=CN=C(N2)NC=3C=CC(=CC3)S(=O)(=O)NCCOC=4C=NSN4)C,-5.0222764
JDTWZSUNGHMMJM-UHFFFAOYSA-N,"l-alloisoleucine, n-acetyl-",CC[C@H](C)[C@@H](NC(C)=O)C(=O)O,CC[C@H](C)[C@H](C(=O)O)NC(=O)C,CC[C@H](C)[C@@H](NC(=O)C)C(=O)O,-0.621
JDUYPUMQALQRCN-UHFFFAOYSA-N,4-BROMODIPHENYL  ETHER,Brc1ccc(Oc2ccccc2)cc1,c1ccc(cc1)Oc2ccc(cc2)Br,BrC1=CC=C(C=C1)OC2=CC=CC=C2,-4.7139999999999995
JDVWHSDOGNJFMD-UHFFFAOYSA-N,,O=c1cc2ccc3ncccc3c2nn1-c1ccc(Cl)cc1,c1cc2c(ccc3c2nn(c(=O)c3)c4ccc(cc4)Cl)nc1,ClC=1C=CC(=CC1)N2C(=O)C=C3C=CC=4N=CC=CC4C3=N2,-7.96967
JDWQITFHZOBBFE-UHFFFAOYSA-N,Benzofenap,Cc1ccc(C(=O)COc2c(C(=O)c3ccc(Cl)c(C)c3Cl)c(C)nn2C)cc1,Cc1ccc(cc1)C(=O)COc2c(c(nn2C)C)C(=O)c3ccc(c(c3Cl)C)Cl,CN1N=C(C(=C1OCC(=O)C=2C=CC(=CC2)C)C(=O)C=3C=CC(=C(C3Cl)C)Cl)C,-6.5209
JDXDUTOQTGQWJD-UHFFFAOYSA-N,,COCCCNS(=O)(=O)c1ccc(Nc2nccc(-c3cnc4ccccn34)n2)cc1,COCCCNS(=O)(=O)c1ccc(cc1)Nc2nccc(n2)c3cnc4n3cccc4,COCCCNS(=O)(=O)C=1C=CC(=CC1)NC=2N=CC=C(N2)C3=CN=C4N3C=CC=C4,-5.6197888
JDXMIYHOSFNZKO-UHFFFAOYSA-N,"DL-Valine, N-(aminocarbonyl)-",CC(C)C(NC(N)=O)C(=O)O,CC(C)C(C(=O)O)NC(=O)N,O=C(NC(C(=O)O)C(C)C)N,-1.5319999999999998
JDYKVLLFURQDOV-UHFFFAOYSA-N,,COc1cc2c(Nc3cnc(NC(=O)c4cccn4C)nc3)ncnc2cc1OCC(O)CN1CCNCC1,Cn1cccc1C(=O)Nc2ncc(cn2)Nc3c4cc(c(cc4ncn3)OCC(CN5CCNCC5)O)OC,COC=1C=C2C(=NC=NC2=CC1OCC(O)CN3CCNCC3)NC=4C=NC(=NC4)NC(=O)C5=CC=CN5C,-3.3279021
JDZPLYBLBIKFHJ-UHFFFAOYSA-N,"Benzenesulfonamide, 5-amino-2-[(4-aminophenyl)su",Nc1ccc(S(=O)(=O)c2ccc(N)cc2S(N)(=O)=O)cc1,c1cc(ccc1N)S(=O)(=O)c2ccc(cc2S(=O)(=O)N)N,S(=O)(=O)(C1=C(C=C(C=C1)N)S(=O)(=O)N)C2=CC=C(C=C2)N,-3.498
JDZQKXHOVKOIPU-UHFFFAOYSA-N,,COc1cc2c(Nc3cnc(C(=O)NCCC4CC4)nc3)ncnc2cc1OCCCNCC1CC1,COc1cc2c(cc1OCCCNCC3CC3)ncnc2Nc4cnc(nc4)C(=O)NCCC5CC5,COC=1C=C2C(=NC=NC2=CC1OCCCNCC3CC3)NC=4C=NC(=NC4)C(=O)NCCC5CC5,-3.3565473
JEBBYIJCXLFPCX-UHFFFAOYSA-N,VEL 3510,COC(CN(C)C(=O)Nc1nnc(C(C)(C)C)s1)OC,CC(C)(C)c1nnc(s1)NC(=O)N(C)CC(OC)OC,S1C(=NN=C1C(C)(C)C)NC(=O)N(CC(OC)OC)C,-1.8679
JEDHGOXYAFQNLQ-UHFFFAOYSA-N,,COc1cc2ncnc(Nc3ccc(F)c(Cl)c3)c2cc1NC(=O)CCN1CCCC1,COc1cc2c(cc1NC(=O)CCN3CCCC3)c(ncn2)Nc4ccc(c(c4)Cl)F,COC=1C=C2N=CN=C(C2=CC1NC(=O)CCN3CCCC3)NC=4C=CC(=C(C4)Cl)F,-4.939712999999999
JEDYYFXHPAIBGR-UHFFFAOYSA-N,"(2-methyl-1-oxo-1-prop-2-enoxypropan-2-yl) 2-chloro-5-[3-methyl-2,6-dioxo-4-(trifluoromethyl)pyrimidin-1-yl]benzoate",C=CCOC(=O)C(C)(C)OC(=O)c1cc(-n2c(=O)cc(C(F)(F)F)n(C)c2=O)ccc1Cl,CC(C)(C(=O)OCC=C)OC(=O)c1cc(ccc1Cl)n2c(=O)cc(n(c2=O)C)C(F)(F)F,O=C(OCC=C)C(OC(=O)C1=CC(=CC=C1Cl)N2C(=O)C=C(N(C2=O)C)C(F)(F)F)(C)C,-4.676764045
JEEQUUSFXYRPRK-UHFFFAOYSA-N,"3,6-Dimethyloctane",CCC(C)CCC(C)CC,CCC(C)CCC(C)CC,CCC(C)CCC(C)CC,-6.2139999999999995
JEFHGYSGNIFAEY-UHFFFAOYSA-N,,CCCC(NOCC)=C1C(=O)CC(CC(C)SCC)CC1=O,CCCC(=C1C(=O)CC(CC1=O)CC(C)SCC)NOCC,O=C1C(=C(NOCC)CCC)C(=O)CC(C1)CC(SCC)C,-1.8430000000000002
JEFXLXPPXHMFOX-UHFFFAOYSA-N,,COc1cc2ncnc(Nc3ccc(F)c(Cl)c3)c2cc1OCCCNC(C)CO,CC(CO)NCCCOc1cc2c(cc1OC)ncnc2Nc3ccc(c(c3)Cl)F,COC=1C=C2N=CN=C(C2=CC1OCCCNC(C)CO)NC=3C=CC(=C(C3)Cl)F,-3.49485
JEGZRTMZYUDVBF-UHFFFAOYSA-N,,c1ccc2nc3ccc4ccccc4c3cc2c1,c1ccc2c(c1)ccc3c2cc4ccccc4n3,C1=CC=C2N=C3C=CC=4C=CC=CC4C3=CC2=C1,-5.81
JEHHECCRMUOFLV-UHFFFAOYSA-N,"Butanedioic acid, 2-methyl-3-(1-methylethyl)-",CC(C)C(C(=O)O)C(C)C(=O)O,CC(C)C(C(C)C(=O)O)C(=O)O,C(=O)(C(C(C(=O)O)C)C(C)C)O,-1.435
JEHHXBXKFYXWMT-UHFFFAOYSA-N,,COc1cc2c(Oc3ccc4[nH]c(C)cc4c3)ncnc2cc1OCC1CCC(=O)N1,Cc1cc2cc(ccc2[nH]1)Oc3c4cc(c(cc4ncn3)OCC5CCC(=O)N5)OC,COC=1C=C2C(=NC=NC2=CC1OCC3CCC(=O)N3)OC=4C=CC=5NC(=CC5C4)C,-3.9208187999999993
JEIZLWNUBXHADF-UHFFFAOYSA-N,Pelletierine,CC(=O)CC1CCCCN1,CC(=O)CC1CCCCN1,N1CCCCC1CC(=O)C,-0.45
JEJBJBKVPOWOQK-UHFFFAOYSA-N,emepronium bromide,CC[N+](C)(C)C(C)CC(c1ccccc1)c1ccccc1,CC[N+](C)(C)C(C)CC(c1ccccc1)c2ccccc2,CC[N+](C)(C)C(C)CC(C1=CC=CC=C1)C2=CC=CC=C2,-0.763248248
JEMXONGWUIVTOP-UHFFFAOYSA-N,,CN1CCCCC1COc1ccc(Nc2ncc(Br)c(Nc3ccccc3)n2)cc1,CN1CCCCC1COc2ccc(cc2)Nc3ncc(c(n3)Nc4ccccc4)Br,CN1CCCCC1COC=2C=CC(=CC2)NC=3N=CC(=C(N3)NC=4C=CC=CC4)Br,-4.2368304000000006
JEQNUGOUEXVYBG-UHFFFAOYSA-N,,COc1cc2c(Nc3ccc(Oc4ccccc4OC)cc3)c(C#N)cnc2cc1OCCCCN(C)C1COCCC1(C)O,CC1(CCOCC1N(C)CCCCOc2cc3c(cc2OC)c(c(cn3)C#N)Nc4ccc(cc4)Oc5ccccc5OC)O,COC=1C=CC=CC1OC=2C=CC(=CC2)NC=3C(=CN=C4C3C=C(C(=C4)OCCCCN(C)C5COCCC5(C)O)OC)C#N,-5.5686362
JERXCFGEKCNECK-UHFFFAOYSA-N,,O=C(O)c1cc2cc(O)c(F)cc2n1Cc1ccc(Cl)c(C(F)(F)F)c1,c1cc(c(cc1Cn2c3cc(c(cc3cc2C(=O)O)O)F)C(F)(F)F)Cl,OC(=O)C1=CC=2C=C(C(=CC2N1CC=3C=CC(=C(C3)C(F)(F)F)Cl)F)O,-2.7695511
JEWIAYIESCUSKQ-UHFFFAOYSA-N,"10H-Phenothiazine, 3-bromo-",Brc1ccc2c(c1)Sc1ccccc1N2,c1ccc2c(c1)Nc3ccc(cc3S2)Br,S1C2=C(C=CC(=C2)Br)NC3=C1C=CC=C3,-6.11195
JEXGKHICCBFUQY-UHFFFAOYSA-N,,CCN1C(=O)CCc2cc(S(=O)(=O)NCCNCCc3ccc(Cl)cc3)ccc21,CCN1c2ccc(cc2CCC1=O)S(=O)(=O)NCCNCCc3ccc(cc3)Cl,CCN1C(=O)CCC2=C1C=CC(=C2)S(=O)(=O)NCCNCCC=3C=CC(=CC3)Cl,-3.6382722000000003
JEYCTXHKTXCGPB-UHFFFAOYSA-N,methaqualone;  2-methyl-3-(2-tolyl)quinazolin-4-one,Cc1ccccc1-n1c(C)nc2ccccc2c1=O,Cc1ccccc1n2c(nc3ccccc3c2=O)C,O=C1N(C(=NC=2C1=CC=CC2)C)C3=C(C=CC=C3)C,-2.920669798
JEYLQCXBYFQJRO-UHFFFAOYSA-N,TRIETHYLENE GLYCOL BIS(2-ETHYLBUTYRATE),CCC(CC)C(=O)OCCOCCOCCOC(=O)C(CC)CC,CCC(CC)C(=O)OCCOCCOCCOC(=O)C(CC)CC,CCC(CC)C(=O)OCCOCCOCCOC(=O)C(CC)CC,-3.2388
JEZZOKXIXNSKQD-UHFFFAOYSA-N,,O=C(Nc1ccc([N+](=O)[O-])cc1)Nc1ccc([N+](=O)[O-])cc1,c1cc(ccc1NC(=O)Nc2ccc(cc2)[N+](=O)[O-])[N+](=O)[O-],C1(=CC=C(C=C1)[N+](=O)[O-])NC(=O)NC2=CC=C(C=C2)[N+](=O)[O-],-5.914
JFBHOMWNONWGDC-UHFFFAOYSA-N,,CC(CCN1CCC(N(CCc2ccccc2)C(=O)Nc2ccc(F)cc2F)CC1)c1ccccc1,CC(CCN1CCC(CC1)N(CCc2ccccc2)C(=O)Nc3ccc(cc3F)F)c4ccccc4,CC(CCN1CCC(CC1)N(CCC=2C=CC=CC2)C(=O)NC=3C=CC(=CC3F)F)C=4C=CC=CC4,-4.30103
JFBKOWCEVLNQHV-UHFFFAOYSA-N,"2,2,6-trimethylcyclohexyl propanoate",CCC(=O)OC1C(C)CCCC1(C)C,CCC(=O)OC1C(CCCC1(C)C)C,CCC(=O)OC1C(CCCC1(C)C)C,-3.8030906310000003
JFBUKMZWJKCABJ-UHFFFAOYSA-N,,CC(C)NCC(O)COc1ccc(Nc2ncc(Br)c(Nc3ccccn3)n2)cc1,CC(C)NCC(COc1ccc(cc1)Nc2ncc(c(n2)Nc3ccccn3)Br)O,CC(C)NCC(O)COC=1C=CC(=CC1)NC=2N=CC(=C(N2)NC=3C=CC=CN3)Br,-4.537602
JFECZQLAMOOGJL-UHFFFAOYSA-N,"7H-Purine-7-acetic acid, 1,2,3,6-tetrahydro-1,3-",CCOC(=O)Cn1cnc2c1c(=O)n(C)c(=O)n2C,CCOC(=O)Cn1cnc2c1c(=O)n(c(=O)n2C)C,C12=C(C(=O)N(C(=O)N1C)C)N(C=N2)CC(=O)OCC,-1.5390000000000001
JFEUXSKGSSSZGI-UHFFFAOYSA-N,3-Oxoandrost-4-en-17-yl 3-hydroxy-2-(hydroxymethyl)propanoate,CC12CCC(=O)C=C1CCC1C2CCC2(C)C(OC(=O)C(CO)CO)CCC12,CC12CCC3C(C1CCC2OC(=O)C(CO)CO)CCC4=CC(=O)CCC34C,CC12CCC(=O)C=C1CCC3C2CCC4(C3CCC4OC(=O)C(CO)CO)C,-4.2495
JFGLOXKNWPNMQT-UHFFFAOYSA-N,,COc1cc2c(Nc3ccc(Br)cc3F)ncnc2cc1OCC1CCCN(C)C1,CN1CCCC(C1)COc2cc3c(cc2OC)c(ncn3)Nc4ccc(cc4F)Br,COC=1C=C2C(=NC=NC2=CC1OCC3CCCN(C3)C)NC=4C=CC(=CC4F)Br,-3.8403447999999996
JFGNQAQJQWCPET-UHFFFAOYSA-N,,CCCCCCCC(=O)Nc1ccc(Nc2ncnc3cc(OC)c(OC)cc23)cc1,CCCCCCCC(=O)Nc1ccc(cc1)Nc2c3cc(c(cc3ncn2)OC)OC,CCCCCCCC(=O)NC=1C=CC(=CC1)NC=2N=CN=C3C2C=C(C(=C3)OC)OC,-6.537602
JFGSWJNZTMZXET-UHFFFAOYSA-N,,CNCc1ccccc1CCC(O)CSc1ccc2ccccc2c1,CNCc1ccccc1CCC(CSc2ccc3ccccc3c2)O,CNCC=1C=CC=CC1CCC(CSC=2C=C3C(C=CC=C3)=CC2)O,-2.9661565
JFIOVJDNOJYLKP-UHFFFAOYSA-N,"Phenol, 2,2'-thiobis 4,6-dichloro-",Oc1c(Cl)cc(Cl)cc1Sc1cc(Cl)cc(Cl)c1O,c1c(cc(c(c1Sc2cc(cc(c2O)Cl)Cl)O)Cl)Cl,OC=1C(=CC(=CC1SC=2C=C(C=C(C2O)Cl)Cl)Cl)Cl,-4.94925
JFIXKFSJCQNGEK-UHFFFAOYSA-N,,CC(=O)CC(c1ccco1)c1c(O)c2ccccc2oc1=O,CC(=O)CC(c1ccco1)c2c(c3ccccc3oc2=O)O,O1C(=CC=C1)C(C2=C(C=3C(OC2=O)=CC=CC3)O)CC(=O)C,-2.7439999999999998
JFJZZMVDLULRGK-UHFFFAOYSA-O,tubocurarine,COc1cc2c3cc1Oc1cc(ccc1O)C[C@@H]1c4c(cc(OC)c(O)c4Oc4ccc(cc4)C[C@@H]3N(C)CC2)CC[N+]1(C)C,CN1CCc2cc(c3cc2[C@@H]1Cc4ccc(cc4)Oc5c6c(cc(c5O)OC)CC[N+]([C@@H]6Cc7ccc(c(c7)O3)O)(C)C)OC,CN1CCC2=CC(=C3C=C2[C@@H]1CC4=CC=C(C=C4)OC5=C6C(=CC(=C5O)OC)CC[N+]([C@@H]6CC7=CC(=C(C=C7)O)O3)(C)C)OC,-1.086167559
JFKLEBCYGWCBAL-UHFFFAOYSA-N,"1-Piperazinecarboxylic acid, 4,4'-ethylenedi-, d",CCOC(=O)N1CCN(CCN2CCN(C(=O)OCC)CC2)CC1,CCOC(=O)N1CCN(CC1)CCN2CCN(CC2)C(=O)OCC,N1(CCN(CC1)CCN2CCN(CC2)C(=O)OCC)C(=O)OCC,-1.256
JFKUBRAOUZEZSL-UHFFFAOYSA-N,4-BUTYLBENZOIC ACID,CCCCc1ccc(C(=O)O)cc1,CCCCc1ccc(cc1)C(=O)O,CCCCC1=CC=C(C=C1)C(=O)O,-3.08
JFKWIFMXMYRTAZ-UHFFFAOYSA-N,"Propanedioic acid, [(methylamino)methyl]-2-prope",C=CCC(CNC)(C(=O)O)C(=O)O,CNCC(CC=C)(C(=O)O)C(=O)O,C(C(=O)O)(C(=O)O)(CC=C)CNC,-0.7499
JFLMDIJIRXAIJE-UHFFFAOYSA-N,,Cc1cccc(Nc2nc(Nc3ccc(OCC(O)CNC(C)C)cc3)ncc2Br)n1,Cc1cccc(n1)Nc2c(cnc(n2)Nc3ccc(cc3)OCC(CNC(C)C)O)Br,CC(C)NCC(O)COC=1C=CC(=CC1)NC=2N=CC(=C(N2)NC=3C=CC=C(N3)C)Br,-4.2076082999999995
JFNWFXVFBDDWCX-UHFFFAOYSA-N,Acetyl_Sulfisoxazole,CC(=O)N(c1onc(C)c1C)S(=O)(=O)c1ccc(N)cc1,Cc1c(noc1N(C(=O)C)S(=O)(=O)c2ccc(cc2)N)C,S(=O)(=O)(N(C(=O)C)C1=C(C(=NO1)C)C)C=2C=CC(=CC2)N,-3.59
JFNWTHLCJSCSIW-UHFFFAOYSA-N,,COc1cc(CC(=O)Nc2ccc(OC3CCN(S(=O)(=O)c4c(C)nn(C)c4Cl)C3)c(OCC(C)CC(=O)O)c2)cc2oc(Nc3ccccc3)nc12,Cc1c(c(n(n1)C)Cl)S(=O)(=O)N2CCC(C2)Oc3ccc(cc3OCC(C)CC(=O)O)NC(=O)Cc4cc5c(c(c4)OC)nc(o5)Nc6ccccc6,COC=1C=C(C=C2C1N=C(O2)NC=3C=CC=CC3)CC(=O)NC=4C=CC(=C(C4)OCC(C)CC(=O)O)OC5CCN(C5)S(=O)(=O)C=6C(=NN(C6Cl)C)C,-4.2441251
JFPVXVDWJQMJEE-UHFFFAOYSA-N,cefuroxime sodium,CO/N=C(\C(=O)N[C@@H]1C(=O)N2C(C(=O)O)=C(COC(N)=O)CS[C@H]12)c1ccco1,CO/N=C(/c1ccco1)\C(=O)N[C@H]2[C@@H]3N(C2=O)C(=C(CS3)COC(=O)N)C(=O)O,CO/N=C(/C1=CC=CO1)\C(=O)N[C@H]2[C@@H]3N(C2=O)C(=C(CS3)COC(=O)N)C(=O)O,-0.7003049920000001
JFQYUJIBDKDEFA-UHFFFAOYSA-N,,CC(C(=O)Nc1ccc2[nH]ncc2c1)c1ccc(Cl)cc1,CC(c1ccc(cc1)Cl)C(=O)Nc2ccc3c(c2)cn[nH]3,CC(C(=O)NC=1C=CC=2NN=CC2C1)C=3C=CC(=CC3)Cl,-5.49485
JFSPBVWPKOEZCB-UHFFFAOYSA-N,Fenfuram,Cc1occc1C(=O)Nc1ccccc1,Cc1c(cco1)C(=O)Nc2ccccc2,O=C(NC=1C=CC=CC1)C2=C(OC=C2)C,-3.3
JFSWOEOFMWZKSV-UHFFFAOYSA-N,,Cc1ccc(-c2ccn(C(COc3cccc(NC(=O)Cc4ccc5nc(Nc6ccccc6)oc5c4)c3)CC(=O)O)n2)cc1,Cc1ccc(cc1)c2ccn(n2)C(CC(=O)O)COc3cccc(c3)NC(=O)Cc4ccc5c(c4)oc(n5)Nc6ccccc6,CC=1C=CC(=CC1)C=2C=CN(N2)C(COC=3C=CC=C(C3)NC(=O)CC=4C=CC=5N=C(OC5C4)NC=6C=CC=CC6)CC(=O)O,-4.5086383
JFTUSFFYSRNFBA-UHFFFAOYSA-N,3-Amino-2-hydroxy-5-nitrobenzoic acid,Nc1cc([N+](=O)[O-])cc(C(=O)O)c1O,c1c(cc(c(c1C(=O)O)O)N)[N+](=O)[O-],NC=1C=C(C=C(C1O)C(=O)O)[N+](=O)[O-],-2.490889517
JFUUKHUKGAQKIW-UHFFFAOYSA-N,"Acetamide, N,N'-(phenylmethylene)bis-",CC(=O)NC(NC(C)=O)c1ccccc1,CC(=O)NC(c1ccccc1)NC(=O)C,CC(=O)NC(NC(=O)C)C=1C=CC=CC1,-1.3142
JFVZFKDSXNQEJW-UHFFFAOYSA-N,tenofovir disoproxil fumarate,CC(C)OC(=O)OCOP(=O)(CO[C@H](C)Cn1cnc2c(N)ncnc21)OCOC(=O)OC(C)C,CC(C)OC(=O)OCOP(=O)(CO[C@H](C)Cn1cnc2c1ncnc2N)OCOC(=O)OC(C)C,C[C@H](CN1C=NC=2C1=NC=NC2N)OCP(=O)(OCOC(=O)OC(C)C)OCOC(=O)OC(C)C,-1.581186789
JFWQIBMUTTWZPJ-UHFFFAOYSA-N,,CSCCC(NC(=O)Cc1ccc2nc(Nc3ccccc3)oc2c1)C(=O)NC(CC(=O)O)c1ccc2c(c1)OCO2,CSCCC(C(=O)NC(CC(=O)O)c1ccc2c(c1)OCO2)NC(=O)Cc3ccc4c(c3)oc(n4)Nc5ccccc5,CSCCC(NC(=O)CC=1C=CC=2N=C(OC2C1)NC=3C=CC=CC3)C(=O)NC(CC(=O)O)C=4C=CC5=C(C4)OCO5,-3.3279021
JFXBEKISTKFVAB-UHFFFAOYSA-N,metocurine iodide,COc1ccc2cc1Oc1cc3c(cc1OC)CC[N+](C)(C)[C@H]3Cc1ccc(cc1)Oc1c(OC)c(OC)cc3c1[C@@H](C2)[N+](C)(C)CC3,C[N+]1(CCc2cc(c3cc2[C@@H]1Cc4ccc(cc4)Oc5c6c(cc(c5OC)OC)CC[N+]([C@@H]6Cc7ccc(c(c7)O3)OC)(C)C)OC)C,C[N+]1(CCC2=CC(=C3C=C2[C@@H]1CC4=CC=C(C=C4)OC5=C6C(=CC(=C5OC)OC)CC[N+]([C@@H]6CC7=CC(=C(C=C7)OC)O3)(C)C)OC)C,-2.480308831
JFZFEBIIZICEOR-UHFFFAOYSA-N,,O=C(CNC(=O)c1cc2sc(Cl)c(Cl)c2[nH]1)NCCCO,c1c2c(c(c(s2)Cl)Cl)[nH]c1C(=O)NCC(=O)NCCCO,OCCCNC(=O)CNC(=O)C1=CC=2SC(=C(C2N1)Cl)Cl,-4.1018235
JFZHPFOXAAIUMB-UHFFFAOYSA-N,phenylethylmalonamide,CCC(C(N)=O)(C(N)=O)c1ccccc1,CCC(c1ccccc1)(C(=O)N)C(=O)N,CCC(C1=CC=CC=C1)(C(=O)N)C(=O)N,-3.3143729
JFZRRXGXEHUJCI-UHFFFAOYSA-N,1-METHYL-4-METHOXYCARBONYL-2-PYRROLIDONE,COC(=O)C1CC(=O)N(C)C1,CN1CC(CC1=O)C(=O)OC,O(C(=O)C1CN(C(=O)C1)C)C,0.804