inchikey,Name,SMILES_stand,SMILES,kekSmiles,logS
DNHSRCVYAJUUOK-UHFFFAOYSA-N,4-(heptyl-methylamino)diazenylbenzoic acid,CCCCCCCN(C)/N=N/c1ccc(C(=O)O)cc1,CCCCCCCN(C)/N=N/c1ccc(cc1)C(=O)O,CCCCCCCN(C)/N=N/C1=CC=C(C=C1)C(=O)O,-3.3875
DNLHSVPDIWLUPL-UHFFFAOYSA-N,,Cc1cc(Nc2nc(NCCCn3ccnc3)ncc2Br)[nH]n1,Cc1cc([nH]n1)Nc2c(cnc(n2)NCCCn3ccnc3)Br,CC=1C=C(NN1)NC=2N=C(N=CC2Br)NCCCN3C=CN=C3,-3.5751184
DNNYNDQWWWDTPP-UHFFFAOYSA-N,sodium 4-{5-hydroxy-3-methyl-4-[(E)-2-[4-methyl-3-(phenylsulfamoyl)phenyl]diazen-1-yl]-1H-pyrazol-1-yl}benzene-1-sulfonate,CC1=NN(c2ccc(S(=O)(=O)O)cc2)C(=O)C1/N=N/c1ccc(C)c(S(=O)(=O)Nc2ccccc2)c1,Cc1ccc(cc1S(=O)(=O)Nc2ccccc2)/N=N/C3C(=NN(C3=O)c4ccc(cc4)S(=O)(=O)O)C,CC1=NN(C(=O)C1/N=N/C=2C=CC(=C(C2)S(=O)(=O)NC=3C=CC=CC3)C)C=4C=CC(=CC4)S(=O)(=O)O,-0.872576185
DNOBQSKPOIGIIX-UHFFFAOYSA-N,3-hydroxy-4-[(E)-2-(2-methyl-4-nitrophenyl)diazen-1-yl]-N-(2-methylphenyl)naphthalene-2-carboxamide,Cc1cc([N+](=O)[O-])ccc1N/N=C1/C(=O)C(C(=O)Nc2ccccc2C)=Cc2ccccc21,Cc1ccccc1NC(=O)C2=Cc3ccccc3/C(=N\Nc4ccc(cc4C)[N+](=O)[O-])/C2=O,CC=1C=CC=CC1NC(=O)C2=CC=3C=CC=CC3/C(=N/NC=4C=CC(=CC4C)[N+](=O)[O-])/C2=O,-7.981073829
DNPSYFHJYIRREW-UHFFFAOYSA-N,3-(2-Methylphenoxy)pyridazine,Cc1ccccc1Oc1cccnn1,Cc1ccccc1Oc2cccnn2,N=1C(=CC=CN1)OC=2C(=CC=CC2)C,-1.969
DNRJTBAOUJJKDY-UHFFFAOYSA-N,tonalid,CC(=O)c1cc2c(cc1C)C(C)(C)C(C)CC2(C)C,Cc1cc2c(cc1C(=O)C)C(CC(C2(C)C)C)(C)C,O=C(C1=C(C=C2C(=C1)C(CC(C2(C)C)C)(C)C)C)C,-5.3152
DNTHHIVFNQZZRD-UHFFFAOYSA-N,Norbormide,O=C1NC(=O)C2C3C(C(O)(c4ccccc4)c4ccccn4)=CC(/C3=C(/c3ccccc3)c3ccccn3)C12,c1ccc(cc1)/C(=C\2/C3C=C(C2C4C3C(=O)NC4=O)C(c5ccccc5)(c6ccccn6)O)/c7ccccn7,OC(C1=CC\2C3C(C1/C2=C(\C4=CC=CC=C4)/C=5N=CC=CC5)C(=O)NC3=O)(C6=CC=CC=C6)C=7N=CC=CC7,-3.93
DNTPZPASMMAMTI-UHFFFAOYSA-N,,COc1cc2ncnc(Nc3cnccn3)c2cc1OCCCN1CCOCC1,COc1cc2c(cc1OCCCN3CCOCC3)c(ncn2)Nc4cnccn4,COC=1C=C2N=CN=C(C2=CC1OCCCN3CCOCC3)NC=4C=NC=CN4,-3.455932
DNVFTNNBXNEYAC-UHFFFAOYSA-N,,O=C(COc1ccc(C(=O)O)cc1)COc1ccc(-c2noc(CCCCCOc3ccccc3)n2)cc1,c1ccc(cc1)OCCCCCc2nc(no2)c3ccc(cc3)OCC(=O)COc4ccc(cc4)C(=O)O,C=1(C=CC=CC1)OCCCCCC2=NC(=NO2)C=3C=CC(=CC3)OCC(=O)COC=4C=CC(=CC4)C(=O)O,-4.900199
DNVVZWSVACQWJE-UHFFFAOYSA-N,Phenyl-4-aminosalicylate,Nc1ccc(C(=O)Oc2ccccc2)c(O)c1,c1ccc(cc1)OC(=O)c2ccc(cc2O)N,NC=1C=CC(=C(C1)O)C(=O)OC=2C=CC=CC2,-4.515
DNWPHHNJIJAHJZ-UHFFFAOYSA-N,,COc1cc2c(Nc3cccc4c3OCO4)ncnc2cc1OCCOc1ccncc1,COc1cc2c(cc1OCCOc3ccncc3)ncnc2Nc4cccc5c4OCO5,COC=1C=C2C(=NC=NC2=CC1OCCOC=3C=CN=CC3)NC=4C=CC=C5C4OCO5,-4.8794261
DNXHEGUUPJUMQT-UHFFFAOYSA-N,Estrone,C[C@]12CC[C@@H]3c4ccc(O)cc4CC[C@H]3[C@@H]1CCC2=O,C[C@]12CC[C@@H]3c4ccc(cc4CC[C@H]3[C@@H]1CCC2=O)O,O=C1CCC2C1(CCC3C2CCC4=C3C=CC(=C4)O)C,-3.96
DNZNDUSLMCXUDP-UHFFFAOYSA-N,,O=C(O)CC(COc1cccc(NC(=O)Cc2ccc3nc(Nc4ccccc4)oc3c2)c1)n1cnc2ncccc21,c1ccc(cc1)Nc2nc3ccc(cc3o2)CC(=O)Nc4cccc(c4)OCC(CC(=O)O)n5cnc6c5cccn6,OC(=O)CC(COC=1C=CC=C(C1)NC(=O)CC=2C=CC=3N=C(OC3C2)NC=4C=CC=CC4)N5C=NC6=C5C=CC=N6,-2.9586072999999997
DOALOUQODWWGEZ-UHFFFAOYSA-N,"trans-4-Ethyl-4'-(4-propylcyclohexyl)-1,1'-biphenyl",CCCC1CCC(c2ccc(-c3ccc(CC)cc3)cc2)CC1,CCCC1CCC(CC1)c2ccc(cc2)c3ccc(cc3)CC,CCCC1CCC(CC1)C=2C=CC(=CC2)C=3C=CC(=CC3)CC,-7.1851952820000005
DOAYWDKFDPSTSV-UHFFFAOYSA-N,"5-CHLORO-1-(PIPERIDIN-4-YL)-2,3-DIHYDRO-1H-1,3-BENZODIAZOL-2-ONE",O=c1[nH]c2cc(Cl)ccc2n1C1CCNCC1,c1cc2c(cc1Cl)[nH]c(=O)n2C3CCNCC3,ClC=1C=CC=2N(C(=O)NC2C1)C3CCNCC3,-2.663037931
DOBMPNYZJYQDGZ-UHFFFAOYSA-N,Dicumarol;  DICOUMAROL,O=c1oc2ccccc2c(O)c1Cc1c(O)c2ccccc2oc1=O,c1ccc2c(c1)c(c(c(=O)o2)Cc3c(c4ccccc4oc3=O)O)O,OC1=C(C(=O)OC2=C1C=CC=C2)CC3=C(C4=CC=CC=C4OC3=O)O,-4.27
DOCBHCZCHWJQCZ-UHFFFAOYSA-N,,O=c1c2c(c(O)nn1Cc1cc(C(F)(F)F)cc(C(F)(F)F)c1)Nc1cc(Cl)ccc1C2,c1cc2c(cc1Cl)Nc3c(c(=O)n(nc3O)Cc4cc(cc(c4)C(F)(F)F)C(F)(F)F)C2,OC1=NN(C(=O)C2=C1NC3=C(C=CC(=C3)Cl)C2)CC=4C=C(C=C(C4)C(F)(F)F)C(F)(F)F,-5.0132283
DODBRSCXFJQZFN-UHFFFAOYSA-N,,COc1ccc(NS(=O)(=O)c2ccc(NC(=O)C(C)(O)C(F)(F)F)c(Cl)c2)cc1OC,CC(C(=O)Nc1ccc(cc1Cl)S(=O)(=O)Nc2ccc(c(c2)OC)OC)(C(F)(F)F)O,COC=1C=CC(=CC1OC)NS(=O)(=O)C=2C=CC(=C(C2)Cl)NC(=O)C(C)(O)C(F)(F)F,-3.7212464
DODMPXGYBRIUJQ-UHFFFAOYSA-N,,O=C(c1ccccc1)N1CCN(c2ccccn2)CC1,c1ccc(cc1)C(=O)N2CCN(CC2)c3ccccn3,O=C(N1CCN(CC1)C=2C=CC=CN2)C=3C=CC=CC3,-2.6197888
DOGJSOZYUGJVKS-UHFFFAOYSA-N,"1,3-dihydroxypropan-2-yl 2-sulfanylacetate 2,3-dihydroxypropyl 2-sulfanylacetate",O=C(CS)OCC(O)CO,C(C(COC(=O)CS)O)O,OCC(O)COC(=O)CS,0.7793871040000001
DOIBQIDXMYSSJY-UHFFFAOYSA-N,Molecule1131,COC1=CC2OC3C=CC(O)=CC3C(=O)C2C(O)=C1,COC1=CC2C(C(=C1)O)C(=O)C3C=C(C=CC3O2)O,O1C2C(C(=O)C3C1C=C(C=C3O)OC)C=C(C=C2)O,-2.943
DOIRQSBPFJWKBE-UHFFFAOYSA-N,dibutylphthalate,CCCCOC(=O)c1ccccc1C(=O)OCCCC,CCCCOC(=O)c1ccccc1C(=O)OCCCC,O=C(OCCCC)C=1C(=CC=CC1)C(=O)OCCCC,-4.395370083
DOJNPGGJVGDCEO-UHFFFAOYSA-N,,CC(=O)Nc1cc2c(Nc3ccc(F)c(Cl)c3)ncnc2cc1OCC1CCN(C)CC1,CC(=O)Nc1cc2c(cc1OCC3CCN(CC3)C)ncnc2Nc4ccc(c(c4)Cl)F,CN1CCC(CC1)COC=2C=C3N=CN=C(C3=CC2NC(=O)C)NC=4C=CC(=C(C4)Cl)F,-4.4202164
DOKTZFGSRDNCFZ-UHFFFAOYSA-N,,Cc1ccccc1NC(=O)Nc1ccc(NC(=O)OCc2cccc(OCC(=O)O)c2)cc1,Cc1ccccc1NC(=O)Nc2ccc(cc2)NC(=O)OCc3cccc(c3)OCC(=O)O,CC=1C=CC=CC1NC(=O)NC=2C=CC(=CC2)NC(=O)OCC=3C=CC=C(C3)OCC(=O)O,-4.8860566
DOKVCMJEHILYHD-UHFFFAOYSA-N,,O=C(NCCS(=O)(=O)Cc1ccccc1F)c1ccc(Cl)cc1,c1ccc(c(c1)CS(=O)(=O)CCNC(=O)c2ccc(cc2)Cl)F,FC=1C=CC=CC1CS(=O)(=O)CCNC(=O)C=2C=CC(=CC2)Cl,-4.2441251
DOLBESUBPIZBQY-UHFFFAOYSA-N,"5-fluoro-1-(phenylmethyl)pyrimidine-2,4-dione",O=c1[nH]c(=O)n(Cc2ccccc2)cc1F,c1ccc(cc1)Cn2cc(c(=O)[nH]c2=O)F,O=C1NC(=O)N(C=C1F)CC2=CC=CC=C2,-2.6495
DOMXUEMWDBAQBQ-UHFFFAOYSA-N,Terbinafine hydrochloride,CN(C/C=C/C#CC(C)(C)C)Cc1cccc2ccccc12,CC(C)(C)C#C/C=C/CN(C)Cc1cccc2c1cccc2,CN(C/C=C/C#CC(C)(C)C)CC=1C=CC=C2C1C=CC=C2,-1.72
DOOTYTYQINUNNV-UHFFFAOYSA-N,TRIETHYL CITRATE,CCOC(=O)CC(O)(CC(=O)OCC)C(=O)OCC,CCOC(=O)CC(CC(=O)OCC)(C(=O)OCC)O,CCOC(=O)CC(O)(CC(=O)OCC)C(=O)OCC,-0.61575
DOSWHECVUKBMCG-UHFFFAOYSA-N,"1,3-propanediamine, N-phenyl-",NCCCNc1ccccc1,c1ccc(cc1)NCCCN,NCCCNC=1C=CC=CC1,-1.65415
DOTQVGUVSRUGBS-UHFFFAOYSA-N,,Cc1c(-c2ccc(Cl)cc2)sc2nc(O)nc(O)c12,Cc1c2c(nc(nc2sc1c3ccc(cc3)Cl)O)O,CC1=C(SC2=C1C(=NC(=N2)O)O)C=3C=CC(=CC3)Cl,-5.455932
DOTZTBUYXHOCIA-UHFFFAOYSA-N,,[O-][n+]1cccc(-c2ncc3c(n2)-c2cncnc2CC3)c1,c1cc(c[n+](c1)[O-])c2ncc3c(n2)-c4cncnc4CC3,[O-][N+]=1C=CC=C(C1)C=2N=C3C(=CN2)CCC4=C3C=NC=N4,-2.809461
DOUYETYNHWVLEO-UHFFFAOYSA-N,imiquimod,CC(C)Cn1cnc2c(N)nc3ccccc3c21,CC(C)Cn1cnc2c1c3ccccc3nc2N,CC(C)CN1C=NC2=C1C3=CC=CC=C3N=C2N,-2.60260252
DOWJXOHBNXRUOD-UHFFFAOYSA-N,1-Methylphenanthrene,Cc1cccc2c1ccc1ccccc12,Cc1cccc2c1ccc3c2cccc3,CC=1C=CC=C2C1C=CC3=C2C=CC=C3,-5.85
DOWVVPKNMVLDNM-UHFFFAOYSA-N,,CC1CCCCOC(CN(C)C(=O)c2ccccc2)C(C)CN(C(C)CO)C(=O)c2cc(NC(=O)Nc3ccc4c(c3)OCO4)ccc2O1,CC1CCCCOC(C(CN(C(=O)c2cc(ccc2O1)NC(=O)Nc3ccc4c(c3)OCO4)C(C)CO)C)CN(C)C(=O)c5ccccc5,CC(CO)N1CC(C(OCCCCC(OC2=CC=C(C=C2C1=O)NC(=O)NC3=CC=C4C(=C3)OCO4)C)CN(C)C(=O)C5=CC=CC=C5)C,-4.538
DOYJTLUPPPUSMD-UHFFFAOYSA-N,"4,5-Dimethyloctane",CCCC(C)C(C)CCC,CCCC(C)C(C)CCC,CCCC(C)C(C)CCC,-6.242999999999999
DPBJAVGHACCNRL-UHFFFAOYSA-N,2-(DIMETHYLAMINO)ETHYL ACRYLATE,C=CC(=O)OCCN(C)C,CN(C)CCOC(=O)C=C,CN(C)CCOC(=O)C=C,0.224310685
DPFRBUJWGGAURD-UHFFFAOYSA-N,,CCCCNc1nc(Nc2ccc(S(=O)(=O)NCCN3CCCCC3)cc2)ncc1C#N,CCCCNc1c(cnc(n1)Nc2ccc(cc2)S(=O)(=O)NCCN3CCCCC3)C#N,CCCCNC=1N=C(N=CC1C#N)NC=2C=CC(=CC2)S(=O)(=O)NCCN3CCCCC3,-5.2839967
DPFUWVWNKGVGNT-UHFFFAOYSA-N,,COc1cc2c(cc1OC)C1=C(C#N)C(C(C)C)NC(=O)N1CC2,CC(C)C1C(=C2c3cc(c(cc3CCN2C(=O)N1)OC)OC)C#N,COC=1C=C2C(=CC1OC)C3=C(C(NC(=O)N3CC2)C(C)C)C#N,-4.3840499
DPGOUBQIEKGWPV-UHFFFAOYSA-N,,CCn1c2c(c3ccccc31)CC(NC(=O)CC1CCS(=O)(=O)C1)CC2,CCn1c2ccccc2c3c1CCC(C3)NC(=O)CC4CCS(=O)(=O)C4,CCN1C2=C(C3=C1C=CC=C3)CC(CC2)NC(=O)CC4CCS(=O)(=O)C4,-3.4436975
DPHWBTRBOKNJEB-UHFFFAOYSA-N,,O=C(O)c1cc2sccc2n1Cc1ccc(Cl)c(Cl)c1,c1cc(c(cc1Cn2c3ccsc3cc2C(=O)O)Cl)Cl,OC(=O)C1=CC=2SC=CC2N1CC=3C=CC(=C(C3)Cl)Cl,-4.3467875
DPIZKMGPXNXSGL-UHFFFAOYSA-N,"4-nitrobenzene-1,3-diamine",Nc1ccc([N+](=O)[O-])c(N)c1,c1cc(c(cc1N)N)[N+](=O)[O-],NC=1C=CC(=C(C1)N)[N+](=O)[O-],-2.185
DPJCXCZTLWNFOH-UHFFFAOYSA-N,o-Nitroaniline,Nc1ccccc1[N+](=O)[O-],c1ccc(c(c1)N)[N+](=O)[O-],O=[N+]([O-])C=1C(=CC=CC1)N,-1.96
DPKHZNPWBDQZCN-UHFFFAOYSA-N,"Acridine, 3,6-bis(dimethylamino)-",CN(C)c1ccc2cc3ccc(N(C)C)cc3nc2c1,CN(C)c1ccc2cc3ccc(cc3nc2c1)N(C)C,N=1C2=CC(=CC=C2C=C3C1C=C(C=C3)N(C)C)N(C)C,-2.5789999999999997
DPLJHZNDUNQHIB-UHFFFAOYSA-N,,CCc1ncc(-c2ccnc(Nc3ccc(S(=O)(=O)NC4CCC4)cc3)n2)n1C,CCc1ncc(n1C)c2ccnc(n2)Nc3ccc(cc3)S(=O)(=O)NC4CCC4,CCC1=NC=C(N1C)C=2C=CN=C(N2)NC=3C=CC(=CC3)S(=O)(=O)NC4CCC4,-5.7851562
DPMVUORDAPXCFF-UHFFFAOYSA-N,,COc1cc2ncnc(Oc3ccc4[nH]c(C)cc4c3F)c2cc1OCCCN1CCCC1,Cc1cc2c([nH]1)ccc(c2F)Oc3c4cc(c(cc4ncn3)OC)OCCCN5CCCC5,COC=1C=C2N=CN=C(C2=CC1OCCCN3CCCC3)OC=4C=CC=5NC(=CC5C4F)C,-4.69897
DPOKNSZRBIXODX-UHFFFAOYSA-O,,Oc1c2ccc3ccccc3[n+]2nn1-c1ccc(C(F)(F)F)cc1,c1ccc2c(c1)ccc3[n+]2nn(c3O)c4ccc(cc4)C(F)(F)F,FC(F)(F)C=1C=CC(=CC1)N2C(=C3C=CC=4C([N+]3=N2)=CC=CC4)O,-6.694744999999999
DPOPJTBOMCSYAQ-UHFFFAOYSA-N,"Carbamic acid, (1,3-dioxo-1,3-propanediyl)bis-,",CCOC(=O)NC(=O)CC(=O)NC(=O)OCC,CCOC(=O)NC(=O)CC(=O)NC(=O)OCC,N(C(=O)CC(=O)NC(=O)OCC)C(=O)OCC,-0.9934
DPOWHSMECVNHAT-UHFFFAOYSA-N,Tetcyclacis,Clc1ccc(N2N=NC3C4CC(C5N=NC45)C32)cc1,c1cc(ccc1N2C3C4CC(C3N=N2)C5C4N=N5)Cl,ClC1=CC=C(C=C1)N2N=NC3C2C4CC3C5C4N=N5,-4.87
DPPUJQMNMOYCCK-UHFFFAOYSA-N,,CC(C)S(=O)(=O)c1ccc(NC(=O)C(C)(O)C(F)(F)F)c(Cl)c1N1CCS(=O)(=O)CC1,CC(C)S(=O)(=O)c1ccc(c(c1N2CCS(=O)(=O)CC2)Cl)NC(=O)C(C)(C(F)(F)F)O,CC(C)S(=O)(=O)C=1C=CC(=C(C1N2CCS(=O)(=O)CC2)Cl)NC(=O)C(C)(O)C(F)(F)F,-4.4112318
DPPWWRRDVWALON-UHFFFAOYSA-N,,COc1cc(CC(=O)Nc2cccc(OCCn3cccn3)c2)cc2oc(Nc3ccccc3)nc12,COc1cc(cc2c1nc(o2)Nc3ccccc3)CC(=O)Nc4cccc(c4)OCCn5cccn5,COC=1C=C(C=C2C1N=C(O2)NC=3C=CC=CC3)CC(=O)NC=4C=CC=C(C4)OCCN5C=CC=N5,-6.619788799999999
DPQBKPDNGZDGRX-UHFFFAOYSA-N,,COc1cc2c(Nc3cnc(NC(=O)c4ccccc4)nc3)ncnc2cc1OCC(O)CNCCO,COc1cc2c(cc1OCC(CNCCO)O)ncnc2Nc3cnc(nc3)NC(=O)c4ccccc4,COC=1C=C2C(=NC=NC2=CC1OCC(O)CNCCO)NC=3C=NC(=NC3)NC(=O)C=4C=CC=CC4,-3.6777807
DPQWQEMLFDYONX-UHFFFAOYSA-N,,COc1cc2ncc(C#N)c(Nc3ccc(Oc4ccccc4OCC#N)cc3)c2cc1OC,COc1cc2c(cc1OC)ncc(c2Nc3ccc(cc3)Oc4ccccc4OCC#N)C#N,COC=1C=C2N=CC(=C(C2=CC1OC)NC=3C=CC(=CC3)OC=4C=CC=CC4OCC#N)C#N,-6.638272200000001
DPRAWXYXWZVLMT-UHFFFAOYSA-N,,COc1cc2c(Nc3ccc(OCc4cccc(C(F)(F)F)c4)nc3)ncnc2cc1OCC1CCN(C)CC1,CN1CCC(CC1)COc2cc3c(cc2OC)c(ncn3)Nc4ccc(nc4)OCc5cccc(c5)C(F)(F)F,COC=1C=C2C(=NC=NC2=CC1OCC3CCN(CC3)C)NC=4C=CC(=NC4)OCC=5C=CC=C(C5)C(F)(F)F,-5.2839967
DPRSKCAGYLXDCY-UHFFFAOYSA-N,,Oc1ccc(Oc2ccc(Cl)cc2Cl)cc1,c1cc(ccc1O)Oc2ccc(cc2Cl)Cl,O(C1=C(C=C(C=C1)Cl)Cl)C2=CC=C(C=C2)O,-4.203
DPSPPJIUMHPXMA-UHFFFAOYSA-N,Flumequine,CC1CCc2cc(F)cc3c(=O)c(C(=O)O)cn1c23,CC1CCc2cc(cc3c2n1cc(c3=O)C(=O)O)F,FC=1C=C2C(=O)C(=CN3C2=C(C1)CCC3C)C(=O)O,-3.7326
DPVYDTACPLLHCF-UHFFFAOYSA-N,2-Phenylethyl pivalate,CC(C)(C)C(=O)OCCc1ccccc1,CC(C)(C)C(=O)OCCc1ccccc1,CC(C)(C)C(=O)OCCC=1C=CC=CC1,-3.675140045
DPWPWRLQFGFJFI-UHFFFAOYSA-N,pargyline hydrochloride,C#CCN(C)Cc1ccccc1,CN(CC#C)Cc1ccccc1,CN(CC#C)CC1=CC=CC=C1,-0.700504026
DPXANBQAIVUQDO-UHFFFAOYSA-N,"Thiomorpholine, 4-phenyl-",c1ccc(N2CCSCC2)cc1,c1ccc(cc1)N2CCSCC2,N1(CCSCC1)C2=CC=CC=C2,-1.254
DPXQKSZBFMAGAY-UHFFFAOYSA-N,,COCC(=O)N1CC(C)C(OC)CN(C)C(=O)c2cc(NC(=O)c3ccccc3)ccc2OCC1C,CC1CN(C(COc2ccc(cc2C(=O)N(CC1OC)C)NC(=O)c3ccccc3)C)C(=O)COC,COCC(=O)N1CC(C(CN(C(=O)C2=CC(=CC=C2OCC1C)NC(=O)C3=CC=CC=C3)C)OC)C,-4.0
DPYMAXOKJUBANR-UHFFFAOYSA-N,"2,6-DIMETHYL-N-NITROSOMORPHOLINE",CC1CN(N=O)CC(C)O1,CC1CN(CC(O1)C)N=O,N1(CC(OC(C1)C)C)N=O,-0.06525
DPZVSJFPQGPZDC-UHFFFAOYSA-N,,Cc1ccc2c(c1)C=Cc1sc(C)nc1C2c1cn(C)c(=O)[nH]c1=S,Cc1ccc2c(c1)C=Cc3c(nc(s3)C)C2c4cn(c(=O)[nH]c4=S)C,C12=C(SC(=N1)C)C=CC=3C(=CC=C(C3)C)C2C4=CN(C(=O)NC4=S)C,-5.7870978
DQBFMGQRTOHBEP-UHFFFAOYSA-N,,O=C(O)CCCOc1cc(NC(=O)Cc2ccc3nc(Nc4ccccc4)oc3c2)ccc1OCCN1CCCC1,c1ccc(cc1)Nc2nc3ccc(cc3o2)CC(=O)Nc4ccc(c(c4)OCCCC(=O)O)OCCN5CCCC5,OC(=O)CCCOC=1C=C(C=CC1OCCN2CCCC2)NC(=O)CC=3C=CC=4N=C(OC4C3)NC=5C=CC=CC5,-4.0132283
DQCKKXVULJGBQN-UHFFFAOYSA-N,naltrexone,O=C1CC[C@@]2(O)[C@H]3Cc4ccc(O)c5c4[C@@]2(CCN3CC2CC2)[C@H]1O5,c1cc(c2c3c1C[C@@H]4[C@]5([C@]3(CCN4CC6CC6)[C@@H](O2)C(=O)CC5)O)O,C1CC1CN2CC[C@]34[C@@H]5C(=O)CC[C@]3([C@H]2CC6=C4C(=C(C=C6)O)O5)O,-0.5332635170000001
DQEHZNCNZALQMZ-UHFFFAOYSA-N,,Cc1c(NC(=O)C2CCOC2)ccc2c1c1ccccc1n2C(C)C,Cc1c(ccc2c1c3ccccc3n2C(C)C)NC(=O)C4CCOC4,CC(C)N1C=2C=CC=CC2C3=C1C=CC(=C3C)NC(=O)C4CCOC4,-4.853872
DQFKPWNIZHSCFJ-UHFFFAOYSA-N,"5-(carbamoylamino)-4,5-dihydroxy-2-oxoimidazolidine-4-carboxylic acid",NC(=O)NC1(O)NC(=O)NC1(O)C(=O)O,C1(=O)NC(C(N1)(NC(=O)N)O)(C(=O)O)O,NC(=O)NC1(NC(=O)NC1(O)C(=O)O)O,-0.3685
DQFPEYARZIQXRM-UHFFFAOYSA-N,Tralkoxydim,CCO/N=C(\CC)C1=C(O)CC(c2c(C)cc(C)cc2C)CC1=O,CC/C(=N\OCC)/C1=C(CC(CC1=O)c2c(cc(cc2C)C)C)O,OC1=C(C(=O)CC(C1)C2=C(C=C(C=C2C)C)C)/C(=N/OCC)/CC,-4.7755
DQIVFTJHYKDOMZ-UHFFFAOYSA-N,"sodium 2-amino-4-nitrophenol benzene-1,3-diol 2-amino-4-nitro-6-sulfobenzen-1-olate iron sodium hydride",Nc1cc([N+](=O)[O-])cc(S(=O)(=O)O)c1O,c1c(cc(c(c1N)O)S(=O)(=O)O)[N+](=O)[O-],NC=1C=C(C=C(C1O)S(=O)(=O)O)[N+](=O)[O-],-1.000646419
DQJCHOQLCLEDLL-UHFFFAOYSA-N,Tricyclazole,Cc1cccc2sc3nncn3c12,Cc1cccc2c1n3cnnc3s2,CC=1C=CC=C2C1N3C(S2)=NN=C3,-2.07
DQJMRHANOSWXOV-UHFFFAOYSA-N,"2-acetamido-3-(2,6-dichlorophenyl)sulfanylpropanoic acid",CC(=O)NC(CSc1c(Cl)cccc1Cl)C(=O)O,CC(=O)NC(CSc1c(cccc1Cl)Cl)C(=O)O,CC(=O)NC(CSC1=C(C=CC=C1Cl)Cl)C(=O)O,-2.3105
DQKTXPJNUGHTLY-UHFFFAOYSA-N,,O=C(O)c1cc2cc(C(F)(F)F)ccc2n1Cc1ccc(Cl)c(Cl)c1,c1cc(c(cc1Cn2c3ccc(cc3cc2C(=O)O)C(F)(F)F)Cl)Cl,OC(=O)C1=CC=2C=C(C=CC2N1CC=3C=CC(=C(C3)Cl)Cl)C(F)(F)F,-4.289882599999999
DQKWXTIYGWPGOO-UHFFFAOYSA-N,BROMOXYNIL OCTANOATE,CCCCCCCC(=O)Oc1c(Br)cc(C#N)cc1Br,CCCCCCCC(=O)Oc1c(cc(cc1Br)C#N)Br,O=C(OC1=C(C=C(C=C1Br)C#N)Br)CCCCCCC,-6.70215
DQMBKIUBHHJLBO-UHFFFAOYSA-N,,Cc1ccc(NC(=O)c2cccc3c2oc2ccccc23)cc1NC(=O)c1cccc(CN2CCCNCC2)c1,Cc1ccc(cc1NC(=O)c2cccc(c2)CN3CCCNCC3)NC(=O)c4cccc5c4oc6c5cccc6,CC=1C=CC(=CC1NC(=O)C=2C=CC=C(C2)CN3CCCNCC3)NC(=O)C=4C=CC=C5C4OC6=C5C=CC=C6,-5.721246400000001
DQMPCJPRPFRUIT-UHFFFAOYSA-N,2-BENZOYLOXY-(N-CYCLOHEXYL)ACETAMIDE;  N-Cyclohexyl-2-benzoyloxyacetamide,O=C(COC(=O)c1ccccc1)NC1CCCCC1,c1ccc(cc1)C(=O)OCC(=O)NC2CCCCC2,O=C(COC(=O)C1=CC=CC=C1)NC2CCCCC2,-3.9
DQMZLTXERSFNPB-UHFFFAOYSA-N,"primidone;  5-ethyl-5-phenylpyrimidine-4,6-dione",CCC1(c2ccccc2)C(=O)NCNC1=O,CCC1(C(=O)NCNC1=O)c2ccccc2,O=C1NCNC(=O)C1(C2=CC=CC=C2)CC,-2.64
DQNAQOYOSRJXFZ-UHFFFAOYSA-N,"1-Naphthalenesulfonic acid, 5-amino-",Nc1cccc2c(S(=O)(=O)O)cccc12,c1cc2c(cccc2S(=O)(=O)O)c(c1)N,NC1=CC=CC2=C1C=CC=C2S(=O)(=O)O,-2.3495
DQNJHGSFNUDORY-UHFFFAOYSA-M,"zinc bis[O,O-bis(2-ethylhexyl)] bis(dithiophosphate)",CCCCC(CC)COP(=S)([S-])OCC(CC)CCCC,CCCCC(CC)COP(=S)(OCC(CC)CCCC)[S-],CCCCC(CC)COP(=S)([S-])OCC(CC)CCCC,-4.928927986000001
DQNZPEKGFSRDBX-UHFFFAOYSA-N,,CN(CCc1ccccc1)C(=O)Nc1ccc2c(c1)-c1ccccc1S2(=O)=O,CN(CCc1ccccc1)C(=O)Nc2ccc3c(c2)-c4ccccc4S3(=O)=O,CN(CCC=1C=CC=CC1)C(=O)NC=2C=CC3=C(C2)C=4C=CC=CC4S3(=O)=O,-6.366531500000001
DQQLZADYSWBCOX-UHFFFAOYSA-N,"(2,5-dioxoimidazolidin-4-yl)acetic acid",O=C(O)CC1NC(=O)NC1=O,C(C1C(=O)NC(=O)N1)C(=O)O,OC(=O)CC1NC(=O)NC1=O,-1.15185
DQULIMIQTCDUAN-UHFFFAOYSA-N,"NICOTINIC ACID, BUTYL ESTER",CCCCOC(=O)c1cccnc1,CCCCOC(=O)c1cccnc1,CCCCOC(=O)C=1C=CC=NC1,-1.837
DQWPFSLDHJDLRL-UHFFFAOYSA-N,triethyl_phosphate,CCOP(=O)(OCC)OCC,CCOP(=O)(OCC)OCC,P(=O)(OCC)(OCC)OCC,0.43
DQZCVNGCTZLGAQ-UHFFFAOYSA-N,"cycluron; 3-cyclooctyl-1,1-dimethylurea",CN(C)C(=O)NC1CCCCCCC1,CN(C)C(=O)NC1CCCCCCC1,O=C(NC1CCCCCCC1)N(C)C,-2.31
DQZPWDYUBJNCAI-UHFFFAOYSA-O,,C[n+]1cc2ccccc2c2nn(-c3ccc(Cl)cc3)c(O)c21,C[n+]1cc2ccccc2c3c1c(n(n3)c4ccc(cc4)Cl)O,C[N+]1=CC=2C(C=3C1=C(N(N3)C=4C=CC(=CC4)Cl)O)=CC=CC2,-4.922818
DRAGYQKESAIJPL-UHFFFAOYSA-N,"2-Isoindolineacetic acid, .alpha.-ethyl-.alpha.-",CCC(C)(C(=O)O)N1C(=O)c2ccccc2C1=O,CCC(C)(C(=O)O)N1C(=O)c2ccccc2C1=O,CCC(C)(C(=O)O)N1C(=O)C2=C(C=CC=C2)C1=O,-1.912
DRAVOWXCEBXPTN-UHFFFAOYSA-N,isoguanine;  6-amino-3h-purin-2-one,Nc1nc(O)nc2nc[nH]c12,c1[nH]c2c(nc(nc2n1)O)N,NC=1N=C(N=C2C1NC=N2)O,-3.4010000000000002
DRCGMQXKMWUZIN-UHFFFAOYSA-N,,Cc1cc(Nc2nc(N(C)Cc3cc(C)no3)ncc2Br)[nH]n1,Cc1cc(on1)CN(C)c2ncc(c(n2)Nc3cc(n[nH]3)C)Br,CN(CC1=CC(=NO1)C)C=2N=CC(=C(N2)NC3=CC(=NN3)C)Br,-5.2048154
DRFSOBZVMGLICQ-UHFFFAOYSA-N,"2-(3,8-dimethyl-1,2,3,4,5,6,7,8-octahydroazulen-5-yl)propan-2-yl acetate",CC(=O)OC(C)(C)C1CCC(C)C2=C(C1)C(C)CC2,CC1CCC(CC2=C1CCC2C)C(C)(C)OC(=O)C,CC1CCC(CC2=C1CCC2C)C(C)(C)OC(=O)C,-5.022801256
DRGIJTNVBHIOFB-UHFFFAOYSA-N,2-nitro-3-phenylphenol,O=[N+]([O-])c1c(O)cccc1-c1ccccc1,c1ccc(cc1)c2cccc(c2[N+](=O)[O-])O,C1=CC=C(C=C1)C2=C(C(=CC=C2)O)[N+](=O)[O-],-3.9515
DRHLDBSLYHKHPJ-UHFFFAOYSA-N,,O=C(NCCN1CCN(Cc2ccc(Cl)c(Cl)c2)CC1)c1ccc(Cl)c(Cl)c1,c1cc(c(cc1CN2CCN(CC2)CCNC(=O)c3ccc(c(c3)Cl)Cl)Cl)Cl,ClC=1C=CC(=CC1Cl)CN2CCN(CC2)CCNC(=O)C=3C=CC(=C(C3)Cl)Cl,-7.0618481
DRIMRCCUFCGKJU-UHFFFAOYSA-N,,CC1CCCCOC(CN(C)S(=O)(=O)c2cn(C)cn2)C(C)CN(C(C)CO)C(=O)c2cc(NC(=O)Nc3ccc(F)cc3)ccc2O1,CC1CCCCOC(C(CN(C(=O)c2cc(ccc2O1)NC(=O)Nc3ccc(cc3)F)C(C)CO)C)CN(C)S(=O)(=O)c4cn(cn4)C,CC(CO)N1CC(C(OCCCCC(OC2=CC=C(C=C2C1=O)NC(=O)NC3=CC=C(C=C3)F)C)CN(C)S(=O)(=O)C4=CN(C=N4)C)C,-4.086
DRJWKACVCBCTHR-UHFFFAOYSA-N,,COC(C(=O)Nc1ccc2[nH]ncc2c1)c1cccc(Cl)c1,COC(c1cccc(c1)Cl)C(=O)Nc2ccc3c(c2)cn[nH]3,COC(C(=O)NC=1C=CC=2NN=CC2C1)C=3C=CC=C(C3)Cl,-4.0362122000000005
DRLFMBDRBRZALE-UHFFFAOYSA-N,N-[2-(5-Methoxy-1H-indol-3-yl)ethyl]acetamide,COc1ccc2[nH]cc(CCNC(C)=O)c2c1,CC(=O)NCCc1c[nH]c2c1cc(cc2)OC,O=C(NCCC=1C=2C(NC1)=CC=C(C2)OC)C,-5.092
DRLSBGXFFUXZIN-UHFFFAOYSA-N,5-tert-butyl-5-(3-methylbut-2-enyl)barbituric  acid,CC(C)=CCC1(C(C)(C)C)C(=O)NC(=O)NC1=O,CC(=CCC1(C(=O)NC(=O)NC1=O)C(C)(C)C)C,N1C(=O)C(C(=O)NC1=O)(C(C)(C)C)CC=C(C)C,-3.5505
DRMOLJPDSCAGCC-UHFFFAOYSA-N,1-(2-ethylbutyl)cyclohexane-1-carbonitrile,CCC(CC)CC1(C#N)CCCCC1,CCC(CC)CC1(CCCCC1)C#N,CCC(CC)CC1(CCCCC1)C#N,-6.587169116
DRPHWGUBDNWJMA-UHFFFAOYSA-N,,O=S(=O)(NCCNC/C=C/c1ccc(Br)cc1)c1ccc2ncccc2c1,c1cc2cc(ccc2nc1)S(=O)(=O)NCCNC/C=C/c3ccc(cc3)Br,BrC=1C=CC(=CC1)/C=C/CNCCNS(=O)(=O)C=2C=CC=3N=CC=CC3C2,-4.086186100000001
DRPKKMUOILHQIO-UHFFFAOYSA-N,,O=C(O)CC(COc1cccc(NC(=O)Cc2ccc3nc(Nc4ccccc4)oc3c2)c1)n1ncc2ccccc21,c1ccc(cc1)Nc2nc3ccc(cc3o2)CC(=O)Nc4cccc(c4)OCC(CC(=O)O)n5c6ccccc6cn5,OC(=O)CC(COC=1C=CC=C(C1)NC(=O)CC=2C=CC=3N=C(OC3C2)NC=4C=CC=CC4)N5N=CC6=C5C=CC=C6,-3.8860566
DRQNYHMIFVYOIP-UHFFFAOYSA-N,,CCn1c2ccc(NC(=O)CCc3ccncc3)cc2c2ccncc21,CCn1c2ccc(cc2c3c1cncc3)NC(=O)CCc4ccncc4,CCN1C=2C=CC(=CC2C3=C1C=NC=C3)NC(=O)CCC=4C=CN=CC4,-4.5086383
DRQYEVAFFAQCFC-UHFFFAOYSA-N,,COc1cc2c(Nc3cnc(C(=O)NCCC4CC4)nc3)ncnc2cc1OCC(O)CNC(C)(C)CO,CC(C)(CO)NCC(COc1cc2c(cc1OC)c(ncn2)Nc3cnc(nc3)C(=O)NCCC4CC4)O,COC=1C=C2C(=NC=NC2=CC1OCC(O)CNC(C)(C)CO)NC=3C=NC(=NC3)C(=O)NCCC4CC4,-3.0915150000000002
DRRMRHKHTQRWMB-UHFFFAOYSA-N,"3-[(2-ethylhexanoyl)oxy]-2,2-bis({[(2-ethylhexanoyl)oxy]methyl})propyl 2-ethylhexanoate",CCCCC(CC)C(=O)OCC(COC(=O)C(CC)CCCC)(COC(=O)C(CC)CCCC)COC(=O)C(CC)CCCC,CCCCC(CC)C(=O)OCC(COC(=O)C(CC)CCCC)(COC(=O)C(CC)CCCC)COC(=O)C(CC)CCCC,CCCCC(CC)C(=O)OCC(COC(=O)C(CC)CCCC)(COC(=O)C(CC)CCCC)COC(=O)C(CC)CCCC,-9.204879709
DRVAMLZVBNYSQE-UHFFFAOYSA-N,"2,2',4,5-TETRACHLORODIPHENYL  ETHER",Clc1cc(Cl)c(Oc2ccccc2Cl)cc1Cl,c1ccc(c(c1)Oc2cc(c(cc2Cl)Cl)Cl)Cl,ClC1=C(C=CC=C1)OC2=CC(=C(C=C2Cl)Cl)Cl,-7.0
DRVLSPUGFXRFLW-UHFFFAOYSA-N,4-[(1-METHYL-2-METHOXY)ETHOXY]CARBOXYACETANILIDE; 4-[(2-Methoxy-1-methylethyloxy)carbonyloxy]acetanilide,COCC(C)OC(=O)Oc1ccc(NC(C)=O)cc1,CC(COC)OC(=O)Oc1ccc(cc1)NC(=O)C,COCC(C)OC(=O)OC1=CC=C(C=C1)NC(=O)C,-2.48
DRWCPERSPGFNIK-UHFFFAOYSA-N,"1H-Purine-2,6-dione, 8-ethyl-3,7-dihydro-1,3,7-t",CCc1nc2c(c(=O)n(C)c(=O)n2C)n1C,CCc1nc2c(n1C)c(=O)n(c(=O)n2C)C,CCC1=NC=2N(C(=O)N(C(=O)C2N1C)C)C,-1.56885
DRWZKHRAKRAPDY-UHFFFAOYSA-N,,COc1cc2ncnc(Oc3cnc4[nH]ccc4c3)c2cc1OCCCN1CCN(CC#N)CC1,COc1cc2c(cc1OCCCN3CCN(CC3)CC#N)c(ncn2)Oc4cc5cc[nH]c5nc4,COC=1C=C2N=CN=C(C2=CC1OCCCN3CCN(CC3)CC#N)OC=4C=NC=5NC=CC5C4,-4.3151546
DRYWYONOFCOCKR-UHFFFAOYSA-N,"sodium 4-{4-[(E)-2-(3-chloro-2-hydroxy-5-nitrophenyl)diazen-1-yl]-3-methyl-5-oxo-4,5-dihydro-1H-pyrazol-1-yl}benzene-1-sulfonate",CC1=NN(c2ccc(S(=O)(=O)O)cc2)C(=O)C1N/N=C1/C=C([N+](=O)[O-])C=C(Cl)C1=O,CC1=NN(C(=O)C1N/N=C\2/C=C(C=C(C2=O)Cl)[N+](=O)[O-])c3ccc(cc3)S(=O)(=O)O,CC1=NN(C(=O)C1N/N=C\2/C=C(C=C(C2=O)Cl)[N+](=O)[O-])C3=CC=C(C=C3)S(=O)(=O)O,-0.838588587
DSBMOVYUOIIPDK-UHFFFAOYSA-N,"5,5-dimethyl-3-(phenylmethyl)imidazolidine-2,4-dione",CC1(C)NC(=O)N(Cc2ccccc2)C1=O,CC1(C(=O)N(C(=O)N1)Cc2ccccc2)C,O=C1N(C(=O)NC1(C)C)CC=2C=CC=CC2,-1.795