inchikey,Name,SMILES_stand,SMILES,kekSmiles,logS
JFZVSHAMRZPOPA-UHFFFAOYSA-N,1-[(2-hydroxypropyl)(4-methylphenyl)amino]propan-2-ol,Cc1ccc(N(CC(C)O)CC(C)O)cc1,Cc1ccc(cc1)N(CC(C)O)CC(C)O,CC(O)CN(CC(C)O)C=1C=CC(=CC1)C,-1.5039109
JGAZIHZELXTNTG-UHFFFAOYSA-N,,COc1cc2c(Nc3cnc(NC(=O)c4cccn4C)nc3)ncnc2cc1OCC(O)CNC(C)(C)CCO,CC(C)(CCO)NCC(COc1cc2c(cc1OC)c(ncn2)Nc3cnc(nc3)NC(=O)c4cccn4C)O,COC=1C=C2C(=NC=NC2=CC1OCC(O)CNC(C)(C)CCO)NC=3C=NC(=NC3)NC(=O)C4=CC=CN4C,-2.79588
JGCCBUPBAHPIGF-UHFFFAOYSA-N,,COc1cc2ncc(C#N)c(Oc3cccc(O)c3)c2cc1OC,COc1cc2c(cc1OC)ncc(c2Oc3cccc(c3)O)C#N,COC=1C=C2N=CC(=C(C2=CC1OC)OC=3C=CC=C(C3)O)C#N,-5.8961963
JGDHSHUKMVVZIU-UHFFFAOYSA-N,,Cc1ccc(NC(=O)c2cccc(-n3cccc3)c2)cc1NC(=O)c1cccc(OC2CCN(C)CC2)c1,Cc1ccc(cc1NC(=O)c2cccc(c2)OC3CCN(CC3)C)NC(=O)c4cccc(c4)n5cccc5,CN1CCC(CC1)OC=2C=CC=C(C2)C(=O)NC=3C=C(C=CC3C)NC(=O)C=4C=CC=C(C4)N5C=CC=C5,-4.468521099999999
JGEPERFKPFDKAX-UHFFFAOYSA-N,"Urea, (3-acetylphenyl)-",CC(=O)c1cccc(NC(N)=O)c1,CC(=O)c1cccc(c1)NC(=O)N,C(=O)(NC1=CC(=CC=C1)C(=O)C)N,-1.874
JGFDZZLUDWMUQH-UHFFFAOYSA-N,"N-decyl-N,N-dimethyldecan-1-aminium chloride",CCCCCCCCCC[N+](C)(C)CCCCCCCCCC,CCCCCCCCCC[N+](C)(C)CCCCCCCCCC,CCCCCCCCCC[N+](C)(C)CCCCCCCCCC,-2.9677471260000003
JGFUANVRPPBRLP-UHFFFAOYSA-N,,O=C(Nc1ncc(Nc2ccnc3cccc(Cl)c23)cn1)c1ccccc1,c1ccc(cc1)C(=O)Nc2ncc(cn2)Nc3ccnc4c3c(ccc4)Cl,ClC=1C=CC=C2C1C(=CC=N2)NC=3C=NC(=NC3)NC(=O)C=4C=CC=CC4,-4.1438756
JGGHVVZEWSPNAX-UHFFFAOYSA-N,,O=C(O)CC(COc1cccc(NC(=O)Cc2ccc3nc(Nc4ccccc4)oc3c2)c1)C(=O)N1CCCC1,c1ccc(cc1)Nc2nc3ccc(cc3o2)CC(=O)Nc4cccc(c4)OCC(CC(=O)O)C(=O)N5CCCC5,OC(=O)CC(COC=1C=CC=C(C1)NC(=O)CC=2C=CC=3N=C(OC3C2)NC=4C=CC=CC4)C(=O)N5CCCC5,-3.1249387000000004
JGGWNGRBXJWAOC-UHFFFAOYSA-N,alpha-Peltatin,COc1cc([C@@H]2c3cc4c(c(O)c3C[C@H]3COC(=O)[C@@H]32)OCO4)cc(OC)c1O,COc1cc(cc(c1O)OC)[C@@H]2c3cc4c(c(c3C[C@@H]5[C@@H]2C(=O)OC5)O)OCO4,O=C1OCC2C1C(C=3C(=C(C4=C(C3)OCO4)O)C2)C5=CC(=C(C(=C5)OC)O)OC,-4.125
JGHBBCHMWWSORJ-UHFFFAOYSA-N,pentyl 4-hydroxy-3-iodobenzoate,CCCCCOC(=O)c1ccc(O)c(I)c1,CCCCCOC(=O)c1ccc(c(c1)I)O,CCCCCOC(=O)C1=CC(=C(C=C1)O)I,-4.2215
JGHZJRVDZXSNKQ-UHFFFAOYSA-N,"octanoic acid, methyl ester",CCCCCCCC(=O)OC,CCCCCCCC(=O)OC,O=C(OC)CCCCCCC,-3.39
JGLSQRPOSALVBS-UHFFFAOYSA-N,,COc1ccc(NC(=O)Cc2cc(OC)c3nc(Nc4cccnc4)oc3c2)cc1OCC(C)CC(=O)O,CC(CC(=O)O)COc1cc(ccc1OC)NC(=O)Cc2cc3c(c(c2)OC)nc(o3)Nc4cccnc4,COC=1C=CC(=CC1OCC(C)CC(=O)O)NC(=O)CC=2C=C(C=3N=C(OC3C2)NC=4C=CC=NC4)OC,-3.8860566
JGMOKGBVKVMRFX-UHFFFAOYSA-N,dydrogesterone,CC(=O)[C@H]1CC[C@H]2[C@@H]3C=CC4=CC(=O)CC[C@@]4(C)[C@@H]3CC[C@]12C,CC(=O)[C@H]1CC[C@@H]2[C@@]1(CC[C@@H]3[C@H]2C=CC4=CC(=O)CC[C@@]34C)C,CC(=O)[C@H]1CC[C@@H]2[C@@]1(CC[C@@H]3[C@H]2C=CC4=CC(=O)CC[C@@]34C)C,-4.936071958
JGOAIQNSOGZNBX-UHFFFAOYSA-N,Adiphenine,CCN(CC)CCOC(=O)C(c1ccccc1)c1ccccc1,CCN(CC)CCOC(=O)C(c1ccccc1)c2ccccc2,CCN(CC)CCOC(=O)C(C1=CC=CC=C1)C2=CC=CC=C2,-2.0
JGOBBNSSQDZGFW-UHFFFAOYSA-N,,CNC(=O)CNC(=O)C(F)(F)Oc1ccccc1Oc1ccc(Nc2c(C#N)cnc3cc(OC)c(OC)cc23)cc1,CNC(=O)CNC(=O)C(Oc1ccccc1Oc2ccc(cc2)Nc3c4cc(c(cc4ncc3C#N)OC)OC)(F)F,CNC(=O)CNC(=O)C(F)(F)OC=1C=CC=CC1OC=2C=CC(=CC2)NC=3C(=CN=C4C3C=C(C(=C4)OC)OC)C#N,-6.886056599999999
JGPMMRGNQUBGND-UHFFFAOYSA-N,idebenone,COC1=C(OC)C(=O)C(CCCCCCCCCCO)=C(C)C1=O,CC1=C(C(=O)C(=C(C1=O)OC)OC)CCCCCCCCCCO,CC1=C(C(=O)C(=C(C1=O)OC)OC)CCCCCCCCCCO,-4.62708928
JGPNCLKRECLYTO-UHFFFAOYSA-N,"Hydrazinecarboxamide, 1-ethyl-2-[(5-nitro-2-fura",CCN(/N=C/c1ccc([N+](=O)[O-])o1)C(N)=O,CCN(C(=O)N)/N=C/c1ccc(o1)[N+](=O)[O-],O=C(N)N(/N=C/C=1OC(=CC1)[N+](=O)[O-])CC,-2.9389999999999996
JGSARLDLIJGVTE-UHFFFAOYSA-N,penicillin g,CC1(C)S[C@@H]2[C@H](NC(=O)Cc3ccccc3)C(=O)N2[C@H]1C(=O)O,CC1([C@@H](N2[C@H](S1)[C@@H](C2=O)NC(=O)Cc3ccccc3)C(=O)O)C,N12C(C(C1=O)NC(=O)CC3=CC=CC=C3)SC(C2C(=O)O)(C)C,-1.63
JGUMTYWKIBJSTN-UHFFFAOYSA-N,"2-ethylhexyl 4-[[4,6-bis[[4-(2-ethylhexoxycarbonyl)phenyl]amino]-1,3,5-triazin-2-yl]amino]benzoate",CCCCC(CC)COC(=O)c1ccc(Nc2nc(Nc3ccc(C(=O)OCC(CC)CCCC)cc3)nc(Nc3ccc(C(=O)OCC(CC)CCCC)cc3)n2)cc1,CCCCC(CC)COC(=O)c1ccc(cc1)Nc2nc(nc(n2)Nc3ccc(cc3)C(=O)OCC(CC)CCCC)Nc4ccc(cc4)C(=O)OCC(CC)CCCC,CCCCC(CC)COC(=O)C=1C=CC(=CC1)NC=2N=C(N=C(N2)NC=3C=CC(=CC3)C(=O)OCC(CC)CCCC)NC=4C=CC(=CC4)C(=O)OCC(CC)CCCC,-8.216000000000001
JHAGRZFIEACDNG-UHFFFAOYSA-N,,CCCc1c(OCCCOc2ccc3c(=O)cc(C(=O)O)oc3c2CCC)ccc(C(C)=O)c1O,CCCc1c(ccc(c1O)C(=O)C)OCCCOc2ccc3c(=O)cc(oc3c2CCC)C(=O)O,O=C1C=2C(=C(C(=CC2)OCCCOC=3C=CC(=C(C3CCC)O)C(=O)C)CCC)OC(=C1)C(=O)O,-4.844674299999999
JHBIZZVQNXQCBC-UHFFFAOYSA-N,,COc1cc2c(Nc3cccc(C)c3)ncnc2cc1OCCCN1CCCC1,Cc1cccc(c1)Nc2c3cc(c(cc3ncn2)OCCCN4CCCC4)OC,COC=1C=C2C(=NC=NC2=CC1OCCCN3CCCC3)NC=4C=CC=C(C4)C,-4.0
JHBKHLUZVFWLAG-UHFFFAOYSA-N,"1,2,4,5-Tetrachlorobenzene",Clc1cc(Cl)c(Cl)cc1Cl,c1c(c(cc(c1Cl)Cl)Cl)Cl,ClC=1C=C(C(=CC1Cl)Cl)Cl,-5.56
JHBPQHKGWKVVNA-UHFFFAOYSA-N,,O=C(CSCc1c(F)cccc1Cl)Nc1ccc(F)c(Cl)c1,c1cc(c(c(c1)Cl)CSCC(=O)Nc2ccc(c(c2)Cl)F)F,FC=1C=CC(=CC1Cl)NC(=O)CSCC=2C(=CC=CC2Cl)F,-6.1804561
JHDYSXXPQIFFJZ-UHFFFAOYSA-N,"Benzoic acid, 2-hydroxy-5-(phenylazo)-",O=C(O)c1cc(/N=N/c2ccccc2)ccc1O,c1ccc(cc1)/N=N/c2ccc(c(c2)C(=O)O)O,O=C(O)C1=C(C=CC(=C1)/N=N/C2=CC=CC=C2)O,-3.054
JHEFOJNPLXSWNZ-UHFFFAOYSA-N,p-Fluoroacetanilide,CC(=O)Nc1ccc(F)cc1,CC(=O)Nc1ccc(cc1)F,O=C(NC1=CC=C(C=C1)F)C,-1.78
JHELOZJAKXYVBE-UHFFFAOYSA-N,Difethialone,O=c1sc2ccccc2c(O)c1C1CC(c2ccc(-c3ccc(Br)cc3)cc2)Cc2ccccc21,c1ccc2c(c1)CC(CC2c3c(c4ccccc4sc3=O)O)c5ccc(cc5)c6ccc(cc6)Br,S1C=2C(C(=C(C1=O)C3C4=C(C=CC=C4)CC(C3)C5=CC=C(C=C5)C6=CC=C(C=C6)Br)O)=CC=CC2,-6.141
JHGKLDZJAHYJIP-UHFFFAOYSA-N,"Acetamide, N-(3-chlorophenyl)-2-cyano-",N#CCC(=O)Nc1cccc(Cl)c1,c1cc(cc(c1)Cl)NC(=O)CC#N,N#CCC(=O)NC1=CC(=CC=C1)Cl,-2.6260000000000003
JHIVUNXAIFBQAZ-UHFFFAOYSA-N,,COc1cc2c(Nc3cccc(C)c3)ncnc2cc1OCCCN1CCC(N2CCCC2)CC1,Cc1cccc(c1)Nc2c3cc(c(cc3ncn2)OCCCN4CCC(CC4)N5CCCC5)OC,COC=1C=C2C(=NC=NC2=CC1OCCCN3CCC(CC3)N4CCCC4)NC=5C=CC=C(C5)C,-3.3187587999999995
JHJOOSLFWRRSGU-UHFFFAOYSA-N,ronnel;  fenchlorophos;  fenchlorphos;  fenclofos,COP(=S)(OC)Oc1cc(Cl)c(Cl)cc1Cl,COP(=S)(OC)Oc1cc(c(cc1Cl)Cl)Cl,S=P(OC)(OC)OC1=CC(=C(C=C1Cl)Cl)Cl,-5.72
JHQGPWVRSPEECJ-UHFFFAOYSA-N,,Cc1ccc(NC(=O)c2cccc(-c3ccc[nH]3)c2)cc1NC(=O)c1cccc(OC2CCN(C)CC2)c1,Cc1ccc(cc1NC(=O)c2cccc(c2)OC3CCN(CC3)C)NC(=O)c4cccc(c4)c5ccc[nH]5,CN1CCC(CC1)OC=2C=CC=C(C2)C(=O)NC=3C=C(C=CC3C)NC(=O)C=4C=CC=C(C4)C5=CC=CN5,-4.251812
JHQVCQDWGSXTFE-UHFFFAOYSA-N,"diallyl oxydiethane-2,1-diyl biscarbonate",C=CCOC(=O)OCCOCCOC(=O)OCC=C,C=CCOC(=O)OCCOCCOC(=O)OCC=C,C=CCOC(=O)OCCOCCOC(=O)OCC=C,-2.06513236
JHRWWRDRBPCWTF-UHFFFAOYSA-N,DIFOLATAN,O=C1C2CC=CCC2C(=O)N1SC(Cl)(Cl)C(Cl)Cl,C1C=CCC2C1C(=O)N(C2=O)SC(C(Cl)Cl)(Cl)Cl,O=C1N(C(=O)C2C1CC=CC2)SC(Cl)(Cl)C(Cl)Cl,-5.4
JHSPCUHPSIUQRB-UHFFFAOYSA-N,"2,6-DICHLOROBENZAMIDE",NC(=O)c1c(Cl)cccc1Cl,c1cc(c(c(c1)Cl)C(=O)N)Cl,NC(=O)C=1C(=CC=CC1Cl)Cl,-1.8430000000000002
JHVLSZHSAYKNHM-UHFFFAOYSA-N,,COc1cc2ncnc(Nc3ccc(F)c(Cl)c3)c2cc1OCCCNC1CCS(=O)(=O)C1,COc1cc2c(cc1OCCCNC3CCS(=O)(=O)C3)c(ncn2)Nc4ccc(c(c4)Cl)F,COC=1C=C2N=CN=C(C2=CC1OCCCNC3CCS(=O)(=O)C3)NC=4C=CC(=C(C4)Cl)F,-4.2879677
JHWNWJKBPDFINM-UHFFFAOYSA-N,AZACYCLOTRIDECAN-2-ONE,O=C1CCCCCCCCCCCN1,C1CCCCCC(=O)NCCCCC1,O=C1CCCCCCCCCCCN1,-2.832777511
JHXZDWAEIMQWSJ-UHFFFAOYSA-N,,CC(O)(C(=O)Nc1ccc(S(=O)(=O)c2ccc(S(=O)(=O)N3CCCC3)cc2)cc1Cl)C(F)(F)F,CC(C(=O)Nc1ccc(cc1Cl)S(=O)(=O)c2ccc(cc2)S(=O)(=O)N3CCCC3)(C(F)(F)F)O,CC(O)(C(=O)NC=1C=CC(=CC1Cl)S(=O)(=O)C=2C=CC(=CC2)S(=O)(=O)N3CCCC3)C(F)(F)F,-6.1804561
JHYJCZHFVBQWPW-UHFFFAOYSA-N,,CC(=O)Nc1ccc(-c2c3c(=O)n(C)c(=O)n(CC(C)C)c3nn2Cc2ccnc3ccccc23)cc1,CC(C)Cn1c2c(c(n(n2)Cc3ccnc4c3cccc4)c5ccc(cc5)NC(=O)C)c(=O)n(c1=O)C,CC(C)CN1C(=O)N(C(=O)C=2C1=NN(C2C=3C=CC(=CC3)NC(=O)C)CC=4C=CN=C5C4C=CC=C5)C,-4.2076082999999995
JIEKMACRVQTPRC-UHFFFAOYSA-N,FENTIAZAC,O=C(O)Cc1sc(-c2ccccc2)nc1-c1ccc(Cl)cc1,c1ccc(cc1)c2nc(c(s2)CC(=O)O)c3ccc(cc3)Cl,OC(=O)CC=1SC(=NC1C=2C=CC(=CC2)Cl)C=3C=CC=CC3,-4.966
JIHDRMRBLXQGCC-UHFFFAOYSA-N,,COc1cc2c(Oc3ccc4[nH]c(C)cc4c3)ncnc2cc1OCCN1CCCCC1,Cc1cc2cc(ccc2[nH]1)Oc3c4cc(c(cc4ncn3)OCCN5CCCCC5)OC,COC=1C=C2C(=NC=NC2=CC1OCCN3CCCCC3)OC=4C=CC=5NC(=CC5C4)C,-4.1804561
JIICYHFLIOGGHE-UHFFFAOYSA-N,"4-methoxybenzene-1,3-dicarboxylic acid",COc1ccc(C(=O)O)cc1C(=O)O,COc1ccc(cc1C(=O)O)C(=O)O,COC=1C=CC(=CC1C(=O)O)C(=O)O,-3.112
JIISSSSCDRNCQY-UHFFFAOYSA-N,,COc1cc2c(Nc3cnc(NC(=O)c4ccccc4)nc3)ncnc2cc1OCC1CCCNC1,COc1cc2c(cc1OCC3CCCNC3)ncnc2Nc4cnc(nc4)NC(=O)c5ccccc5,COC=1C=C2C(=NC=NC2=CC1OCC3CCCNC3)NC=4C=NC(=NC4)NC(=O)C=5C=CC=CC5,-2.7212464
JIKHZDYOCIZVJX-UHFFFAOYSA-N,5-hexoxy-2-[(~{Z})-~{N}-hydroxy-~{C}-methylcarbonimidoyl]phenol,CCCCCCOc1ccc(/C(C)=N/O)c(O)c1,CCCCCCOc1ccc(c(c1)O)/C(=N/O)/C,CCCCCCOC1=CC(=C(C=C1)/C(=N/O)/C)O,-4.15
JIKUXBYRTXDNIY-UHFFFAOYSA-N,N-Methyl-N-phenylformamide,CN(C=O)c1ccccc1,CN(C=O)c1ccccc1,CN(C=O)C=1C=CC=CC1,-1.494890474
JIMMILCKVYOFET-UHFFFAOYSA-N,HEXADECANOL,CCCCCCCCCCCCC(O)CCC,CCCCCCCCCCCCC(CCC)O,OC(CCC)CCCCCCCCCCCC,-6.7709
JINURNSPHNUGPC-UHFFFAOYSA-N,"3,4-Heptanediol, 3-ethyl-6-methyl-",CCC(O)(CC)C(O)CC(C)C,CCC(CC)(C(CC(C)C)O)O,C(C(CC(C)C)O)(O)(CC)CC,-1.598
JIPDTRLJBRHTRV-UHFFFAOYSA-N,sodium 4-[(3-amino-4-methylbenzoyl)amino]benzenesulfonate,Cc1ccc(C(=O)Nc2ccc(S(=O)(=O)O)cc2)cc1N,Cc1ccc(cc1N)C(=O)Nc2ccc(cc2)S(=O)(=O)O,CC=1C=CC(=CC1N)C(=O)NC=2C=CC(=CC2)S(=O)(=O)O,-0.9492887940000001
JISACBWYRJHSMG-UHFFFAOYSA-N,,COP(=S)(OC)Oc1ccc(S(=O)(=O)N(C)C)cc1,CN(C)S(=O)(=O)c1ccc(cc1)OP(=S)(OC)OC,P(=S)(OC1=CC=C(C=C1)S(=O)(=O)N(C)C)(OC)OC,-3.512
JISQBJRFTCXDEO-UHFFFAOYSA-N,"Pteridine, 2-chloro-",Clc1ncc2nccnc2n1,c1cnc2c(n1)cnc(n2)Cl,N1=C2C(N=CC=N2)=CN=C1Cl,-0.6988
JISSLTOKQRHSMJ-UHFFFAOYSA-N,"4H-Pyran-3,5-dicarboxylic acid, 2,6-dimethyl-4-o",CCOC(=O)c1c(C)oc(C)c(C(=O)OCC)c1=O,CCOC(=O)c1c(oc(c(c1=O)C(=O)OCC)C)C,CCOC(=O)C1=C(OC(=C(C1=O)C(=O)OCC)C)C,-1.52575
JITZKVIWYZYXBU-UHFFFAOYSA-N,,COc1cc2c(Oc3ccc4[nH]c(C)cc4c3F)ncnc2cc1OCC1CCN(CCN2CCOCC2)CC1,Cc1cc2c([nH]1)ccc(c2F)Oc3c4cc(c(cc4ncn3)OCC5CCN(CC5)CCN6CCOCC6)OC,COC=1C=C2C(=NC=NC2=CC1OCC3CCN(CC3)CCN4CCOCC4)OC=5C=CC=6NC(=CC6C5F)C,-4.075204
JIVLDFFWTQYGSR-UHFFFAOYSA-N,"4,7-Dimethyl-1,10-phenanthroline",Cc1ccnc2c1ccc1c(C)ccnc12,Cc1ccnc2c1ccc3c2nccc3C,N1=C2C(=C(C=C1)C)C=CC3=C2N=CC=C3C,-3.97
JIVPVXMEBJLZRO-UHFFFAOYSA-N,Molecule316,NS(=O)(=O)c1cc(C2(O)NC(=O)c3ccccc32)ccc1Cl,c1ccc2c(c1)C(=O)NC2(c3ccc(c(c3)S(=O)(=O)N)Cl)O,NS(=O)(=O)C=1C=C(C=CC1Cl)C2(NC(=O)C3=C2C=CC=C3)O,-3.4507
JIXOWWCSTSTDGI-UHFFFAOYSA-N,,O=S1(=O)CCC(Oc2cccc3ncnc(Nc4ccc(F)c(Cl)c4)c23)CC1,c1cc2c(c(c1)OC3CCS(=O)(=O)CC3)c(ncn2)Nc4ccc(c(c4)Cl)F,FC=1C=CC(=CC1Cl)NC=2N=CN=C3C2C(=CC=C3)OC4CCS(=O)(=O)CC4,-6.1487417
JIYIHILAGIZIMD-UHFFFAOYSA-N,(4Z)-cyclopentadec-4-en-1-one,O=C1CC/C=C\CCCCCCCCCC1,C1CCCCCC(=O)CC/C=C\CCCC1,O=C1CCCCCCCCCC/C=C\CC1,-4.883093557
JIYQZXXVLOAXTM-UHFFFAOYSA-N,,Cc1ccccc1NC(=O)Nc1ccc(NC(=O)OCc2cccc(COCCC(=O)O)c2)cc1,Cc1ccccc1NC(=O)Nc2ccc(cc2)NC(=O)OCc3cccc(c3)COCCC(=O)O,CC=1C=CC=CC1NC(=O)NC=2C=CC(=CC2)NC(=O)OCC=3C=CC=C(C3)COCCC(=O)O,-4.920818799999999
JJCFRYNCJDLXIK-UHFFFAOYSA-N,Cyproheptadine,CN1CCC(=C2c3ccccc3C=Cc3ccccc32)CC1,CN1CCC(=C2c3ccccc3C=Cc4c2cccc4)CC1,CN1CCC(=C2C3=CC=CC=C3C=CC=4C2=CC=CC4)CC1,-3.091
JJDFVIDVSCYKDS-UHFFFAOYSA-N,"1,3,3-trimethyl-5-oxocyclohexane-1-carbonitrile",CC1(C)CC(=O)CC(C)(C#N)C1,CC1(CC(=O)CC(C1)(C)C#N)C,CC1(CC(=O)CC(C1)(C)C#N)C,-1.54
JJDOHTDXSMXGNE-UHFFFAOYSA-N,,N#Cc1cnc(Nc2ccc(S(=O)(=O)NCC3CCCO3)cc2)nc1NC1CC1,c1cc(ccc1Nc2ncc(c(n2)NC3CC3)C#N)S(=O)(=O)NCC4CCCO4,O=S(=O)(NCC1CCCO1)C=2C=CC(=CC2)NC=3N=CC(=C(N3)NC4CC4)C#N,-6.2006595
JJFODIPCKGKOTI-UHFFFAOYSA-N,,COc1cc(NC(=O)OCCCC2CCCN(CC(=O)O)C2)c(C)cc1NC(=O)Nc1ccccc1C,Cc1ccccc1NC(=O)Nc2cc(c(cc2OC)NC(=O)OCCCC3CCCN(C3)CC(=O)O)C,COC=1C=C(C(=CC1NC(=O)NC=2C=CC=CC2C)C)NC(=O)OCCCC3CCCN(C3)CC(=O)O,-4.0132283
JJFONHXJKBVBHW-UHFFFAOYSA-N,,COc1cc2c(Oc3ccc4[nH]ccc4c3)ncnc2cc1OCCCN1CCCC1,COc1cc2c(cc1OCCCN3CCCC3)ncnc2Oc4ccc5c(c4)cc[nH]5,COC=1C=C2C(=NC=NC2=CC1OCCCN3CCCC3)OC=4C=CC=5NC=CC5C4,-3.6082269
JJGKJSSONJZVKE-UHFFFAOYSA-N,,COc1ccc(NC(=O)Cc2cc(OC)c3nc(Nc4ccccc4)oc3c2)cc1OCC(C)CC(=O)O,CC(CC(=O)O)COc1cc(ccc1OC)NC(=O)Cc2cc3c(c(c2)OC)nc(o3)Nc4ccccc4,COC=1C=CC(=CC1OCC(C)CC(=O)O)NC(=O)CC=2C=C(C=3N=C(OC3C2)NC=4C=CC=CC4)OC,-5.4202164
JJGWQXMAOXKYNE-UHFFFAOYSA-N,,COc1cc(OC2CCN(C)CC2)c2c(Nc3ccc(F)c(Cl)c3)ncnc2c1,CN1CCC(CC1)Oc2cc(cc3c2c(ncn3)Nc4ccc(c(c4)Cl)F)OC,COC=1C=C(C=2C(=NC=NC2C1)NC=3C=CC(=C(C3)Cl)F)OC4CCN(CC4)C,-5.6777807000000005
JJIJQULYODNGKJ-UHFFFAOYSA-N,"Dodecanoic acid, 2,3-dihydroxy-",CCCCCCCCCC(O)C(O)C(=O)O,CCCCCCCCCC(C(C(=O)O)O)O,O=C(C(C(O)CCCCCCCCC)O)O,-3.5210000000000004
JJIUCEJQJXNMHV-UHFFFAOYSA-N,Vx agent,CCOP(C)(=O)SCCN(C(C)C)C(C)C,CCOP(=O)(C)SCCN(C(C)C)C(C)C,S(P(=O)(OCC)C)CCN(C(C)C)C(C)C,-0.95
JJLKXBIUMBGNNY-UHFFFAOYSA-N,2-(4-phenylphenyl)acetamide,NC(=O)Cc1ccc(-c2ccccc2)cc1,c1ccc(cc1)c2ccc(cc2)CC(=O)N,NC(=O)CC1=CC=C(C=C1)C2=CC=CC=C2,-3.3275
JJMAXJNHQTZHMV-UHFFFAOYSA-N,,COc1cc(C(O)C(=O)Nc2ccc(OC3CCN(S(=O)(=O)c4ccccc4)C3)c(OCC(C)CC(=O)O)c2)cc2oc(Nc3ccccc3)nc12,CC(CC(=O)O)COc1cc(ccc1OC2CCN(C2)S(=O)(=O)c3ccccc3)NC(=O)C(c4cc5c(c(c4)OC)nc(o5)Nc6ccccc6)O,COC=1C=C(C=C2C1N=C(O2)NC=3C=CC=CC3)C(O)C(=O)NC=4C=CC(=C(C4)OCC(C)CC(=O)O)OC5CCN(C5)S(=O)(=O)C=6C=CC=CC6,-3.49485
JJRDRFZYKKFYMO-UHFFFAOYSA-N,2-methyl-2-[(2-methylbutan-2-yl)peroxy]butane,CCC(C)(C)OOC(C)(C)CC,CCC(C)(C)OOC(C)(C)CC,CCC(C)(C)OOC(C)(C)CC,-4.10021767
JJSYXNQGLHBRRK-UHFFFAOYSA-N,,CC1CCC2(O)C3(C)CC4(O)OC2(C1O)C1(O)C3(O)C(OC(=O)c2ccc[nH]2)C(O)(C(C)C)C41C,CC1CCC2(C3(CC4(C5(C(C(C3(C5(C2(C1O)O4)O)O)OC(=O)c6ccc[nH]6)(C(C)C)O)C)O)C)O,O1C23C4(C5(C1(CC(C4(C(C5(O)C(C)C)OC(=O)C=6NC=CC6)O)(C2(CCC(C3O)C)O)C)O)C)O,-1.489
JJTUDXZGHPGLLC-UHFFFAOYSA-N,"3,6-Dimethyl-1,4-dioxane-2,5-dione",CC1OC(=O)C(C)OC1=O,CC1C(=O)OC(C(=O)O1)C,CC1OC(=O)C(OC1=O)C,-0.936012932
JJVKJJNCIILLRP-UHFFFAOYSA-N,2-ETHYL-6-METHYLANILINE,CCc1cccc(C)c1N,CCc1cccc(c1N)C,CCC=1C=CC=C(C1N)C,-1.706
JJWDBZJGUVCRRX-UHFFFAOYSA-N,Ibuprofen,CCN(CC)CCNC(=O)C1CC(Cl)C(N)CC1OC,CCN(CC)CCNC(=O)C1CC(C(CC1OC)N)Cl,CCN(CC)CCNC(=O)C1C(CC(C(C1)Cl)N)OC,-3.594
JJXNVYMIYBNZQX-UHFFFAOYSA-N,ISOPROPYL PHENYL DIPHENYL PHOSPHATE,CC(C)c1ccccc1OP(=O)(Oc1ccccc1)Oc1ccccc1,CC(C)c1ccccc1OP(=O)(Oc2ccccc2)Oc3ccccc3,CC(C)C=1C=CC=CC1OP(=O)(OC=2C=CC=CC2)OC=3C=CC=CC3,-5.22395
JJZONEUCDUQVGR-UHFFFAOYSA-M,,[O-]/N=C(C(=N/O)\c1ccccc1)/c1ccccc1,c1ccc(cc1)/C(=N/O)/C(=N\[O-])/c2ccccc2,C(=N/O)(/C(=N\[O-])/C1=CC=CC=C1)\C2=CC=CC=C2,-5.899
JJZONEUCDUQVGR-UHFFFAOYSA-N,Benzil Dioxime,O/N=C(C(=N/O)\c1ccccc1)/c1ccccc1,c1ccc(cc1)/C(=N/O)/C(=N\O)/c2ccccc2,O/N=C(/C1=CC=CC=C1)\C(=N/O)\C2=CC=CC=C2,-5.9
JJZVLVUELJRGGM-UHFFFAOYSA-N,DIS. A. 12,CCN(CCO)c1ccc(/N=N/c2ccc([N+](=O)[O-])cc2[N+](=O)[O-])cc1,CCN(CCO)c1ccc(cc1)/N=N/c2ccc(cc2[N+](=O)[O-])[N+](=O)[O-],O=[N+]([O-])C1=CC=C(C(=C1)[N+](=O)[O-])/N=N/C2=CC=C(C=C2)N(CC)CCO,-5.699
JKGPQSYGOYJTNI-UHFFFAOYSA-N,,Cc1ccc(NC(=O)c2ccnc(N3CCCCCC3)c2)cc1NC(=O)c1cccc(CN2CCN(C)CC2)c1,Cc1ccc(cc1NC(=O)c2cccc(c2)CN3CCN(CC3)C)NC(=O)c4ccnc(c4)N5CCCCCC5,CN1CCN(CC1)CC=2C=CC=C(C2)C(=O)NC=3C=C(C=CC3C)NC(=O)C=4C=CN=C(C4)N5CCCCCC5,-4.1426675
JKIJEFPNVSHHEI-UHFFFAOYSA-N,"Tris(2,4-di-tert-butylphenyl) phosphite",CC(C)(C)c1ccc(OP(Oc2ccc(C(C)(C)C)cc2C(C)(C)C)Oc2ccc(C(C)(C)C)cc2C(C)(C)C)c(C(C)(C)C)c1,CC(C)(C)c1ccc(c(c1)C(C)(C)C)OP(Oc2ccc(cc2C(C)(C)C)C(C)(C)C)Oc3ccc(cc3C(C)(C)C)C(C)(C)C,CC(C)(C)C=1C=CC(=C(C1)C(C)(C)C)OP(OC=2C=CC(=CC2C(C)(C)C)C(C)(C)C)OC=3C=CC(=CC3C(C)(C)C)C(C)(C)C,-8.111891986
JKLHHVBMBLUNBW-UHFFFAOYSA-N,"3-AZIRIDIN-1-YL-2,4-DINITRO-(N-CYCLOPROPYL)BENZAMIDE",O=C(NC1CC1)c1cc(N2CC2)c([N+](=O)[O-])cc1[N+](=O)[O-],c1c(c(cc(c1N2CC2)[N+](=O)[O-])[N+](=O)[O-])C(=O)NC3CC3,O=[N+]([O-])C1=C(C=C(C(=C1)[N+](=O)[O-])C(=O)NC2CC2)N3CC3,-3.39
JKLVBOAULHJWOY-UHFFFAOYSA-N,,CCN1CCCC(NCCCOc2cc3ncnc(Nc4ccc(F)c(Cl)c4)c3cc2OC)C1,CCN1CCCC(C1)NCCCOc2cc3c(cc2OC)c(ncn3)Nc4ccc(c(c4)Cl)F,CCN1CCCC(C1)NCCCOC=2C=C3N=CN=C(C3=CC2OC)NC=4C=CC(=C(C4)Cl)F,-3.60206
JKMHFZQWWAIEOD-UHFFFAOYSA-N,sodium 2-[4-(2-hydroxyethyl)piperazin-1-yl]ethane-1-sulfonate,O=S(=O)(O)CCN1CCN(CCO)CC1,C1CN(CCN1CCO)CCS(=O)(=O)O,OCCN1CCN(CC1)CCS(=O)(=O)O,0.4319
JKNCOURZONDCGV-UHFFFAOYSA-N,2-(dimethylamino)ethyl 2-methylprop-2-enoate,C=C(C)C(=O)OCCN(C)C,CC(=C)C(=O)OCCN(C)C,CN(C)CCOC(=O)C(=C)C,0.5025
JKOQGQFVAUAYPM-UHFFFAOYSA-N,amifostine,NCCCNCCSP(=O)(O)O,C(CN)CNCCSP(=O)(O)O,C(CN)CNCCSP(=O)(O)O,-1.059018408
JKOZKFJTOIXANY-UHFFFAOYSA-N,"2,4,6(1H,3H,5H)-Pyrimidinetrione, 5-(2-methylpro",CCCC1(CC(C)C)C(=O)NC(=O)NC1=O,CCCC1(C(=O)NC(=O)NC1=O)CC(C)C,C1(C(=O)NC(=O)NC1=O)(CC(C)C)CCC,-2.258
JKSBRTNKAZEZDZ-UHFFFAOYSA-N,Alprenolol,CCCCN1CCCCC1C(=O)NC1C(C)CCCC1C,CCCCN1CCCCC1C(=O)NC2C(CCCC2C)C,C1(CCCCN1CCCC)C(=O)NC2C(CCCC2C)C,-2.634
JKTYGPATCNUWKN-UHFFFAOYSA-N,p-Nitrobenzyl alcohol,O=[N+]([O-])c1ccc(CO)cc1,c1cc(ccc1CO)[N+](=O)[O-],[N+](=O)(C=1C=CC(=CC1)CO)[O-],-1.88405
JKVVNSPGGMDVNE-UHFFFAOYSA-N,,Cc1ccc(NC(=O)c2ccnc(N3CCOCC3)c2)cc1NC(=O)c1ccnc(N2CCN(C)CC2)c1,Cc1ccc(cc1NC(=O)c2ccnc(c2)N3CCN(CC3)C)NC(=O)c4ccnc(c4)N5CCOCC5,CN1CCN(CC1)C=2C=C(C=CN2)C(=O)NC=3C=C(C=CC3C)NC(=O)C=4C=CN=C(C4)N5CCOCC5,-4.468521099999999
JKZRVIBTAHYFHU-UHFFFAOYSA-N,,CCn1c2c(c3ccccc31)CC(NC(=O)N1CCCC(C(N)=O)C1)CC2,CCn1c2ccccc2c3c1CCC(C3)NC(=O)N4CCCC(C4)C(=O)N,CCN1C2=C(C3=C1C=CC=C3)CC(CC2)NC(=O)N4CCCC(C4)C(=O)N,-3.5528419999999996
JLGFXXSGFLHHPJ-UHFFFAOYSA-N,,CNc1ccc(-c2cc(C(N)=O)c(NC(N)=O)s2)cn1,CNc1ccc(cn1)c2cc(c(s2)NC(=O)N)C(=O)N,CNC=1C=CC(=CN1)C2=CC(=C(S2)NC(=O)N)C(=O)N,-5.7695511
JLGHCFNZJKVXAE-UHFFFAOYSA-N,4-(Hydroxyamino)benzenesulfonamide,NS(=O)(=O)c1ccc(NO)cc1,c1cc(ccc1NO)S(=O)(=O)N,S(=O)(=O)(C1=CC=C(C=C1)NO)N,-0.8415
JLGHPCSISANMTR-UHFFFAOYSA-N,,Cc1cc(N2CCCCC2)nc(NC(=N)Nc2ccc(Cl)cc2)n1,Cc1cc(nc(n1)NC(=N)Nc2ccc(cc2)Cl)N3CCCCC3,CC=1C=C(N=C(N1)NC(=N)NC=2C=CC(=CC2)Cl)N3CCCCC3,-2.6575773
JLGLQAWTXXGVEM-UHFFFAOYSA-N,METHOXY TRIETHYLENE GLYCOL,COCCOCCOCCO,COCCOCCOCCO,OCCOCCOCCOC,0.7846
JLGOGFIHBRJQHY-UHFFFAOYSA-N,oxytetracycline,CN(C)[C@@H]1C(O)=C(C(N)=O)C(=O)[C@@]2(O)C(=O)C3=C(O)c4c(O)cccc4[C@@](C)(O)[C@H]3[C@H](O)[C@@H]12,C[C@]1(c2cccc(c2C(=C3[C@@H]1[C@@H]([C@H]4[C@@H](C(=C(C(=O)[C@]4(C3=O)O)C(=O)N)O)N(C)C)O)O)O)O,OC1=C2C(=CC=C1)[C@]([C@@H]3C(=C2O)C(=O)[C@@]4(C(=O)C(=C([C@H]([C@@H]4[C@H]3O)N(C)C)O)C(=O)N)O)(O)C,-3.09
JLIDBLDQVAYHNE-UHFFFAOYSA-N,,CC1=CC(=O)CC(C)(C)C1(O)/C=C/C(C)=C/C(=O)O,CC1=CC(=O)CC(C1(/C=C/C(=C/C(=O)O)/C)O)(C)C,C1(CC(=O)C=C(C1(/C=C/C(=C/C(=O)O)/C)O)C)(C)C,0.2308
JLKIGFTWXXRPMT-UHFFFAOYSA-N,sulfamethoxazole,Cc1cc(NS(=O)(=O)c2ccc(N)cc2)no1,Cc1cc(no1)NS(=O)(=O)c2ccc(cc2)N,S(=O)(=O)(NC1=NOC(=C1)C)C=2C=CC(=CC2)N,-2.62
JLLJHQLUZAKJFH-UHFFFAOYSA-N,"isouron;  3-(5-tert-butylisoxazol-3-yl)-1,1-dimethylurea",CN(C)C(=O)Nc1cc(C(C)(C)C)on1,CC(C)(C)c1cc(no1)NC(=O)N(C)C,CN(C)C(=O)NC=1C=C(ON1)C(C)(C)C,-2.4272
JLORDDAMTZCVKV-UHFFFAOYSA-N,"Uric acid, 7-(hydroxymethyl)-",O=c1[nH]c(=O)c2c([nH]1)[nH]c(=O)n2CO,C(n1c2c([nH]c(=O)[nH]c2=O)[nH]c1=O)O,O=C1N(C2=C(N1)NC(=O)NC2=O)CO,-1.899
JLQUFIHWVLZVTJ-UHFFFAOYSA-N,carbosulfan,CCCCN(CCCC)SN(C)C(=O)Oc1cccc2c1OC(C)(C)C2,CCCCN(CCCC)SN(C)C(=O)Oc1cccc2c1OC(C2)(C)C,CCCCN(CCCC)SN(C)C(=O)OC=1C=CC=C2C1OC(C2)(C)C,-6.10315
JLRGJRBPOGGCBT-UHFFFAOYSA-N,Tolbutamide,CCCCNC(=O)NS(=O)(=O)c1ccc(C)cc1,CCCCNC(=O)NS(=O)(=O)c1ccc(cc1)C,S(=O)(=O)(NC(=O)NCCCC)C=1C=CC(=CC1)C,-3.39
JLROULFIQSVDDO-UHFFFAOYSA-N,,COc1cc2c(Oc3ccc4[nH]c(C)cc4c3)ncnc2cc1OCC1CCN(CCN2CCCC2)CC1,Cc1cc2cc(ccc2[nH]1)Oc3c4cc(c(cc4ncn3)OCC5CCN(CC5)CCN6CCCC6)OC,COC=1C=C2C(=NC=NC2=CC1OCC3CCN(CC3)CCN4CCCC4)OC=5C=CC=6NC(=CC6C5)C,-2.9906498
JLSNETLYFKXNJM-UHFFFAOYSA-N,,COc1cc2c(Nc3ccc(NC(=O)c4ccccc4[N+](=O)[O-])cc3)ncnc2cc1OCCCN1CCOCC1,COc1cc2c(cc1OCCCN3CCOCC3)ncnc2Nc4ccc(cc4)NC(=O)c5ccccc5[N+](=O)[O-],COC=1C=C2C(=NC=NC2=CC1OCCCN3CCOCC3)NC=4C=CC(=CC4)NC(=O)C=5C=CC=CC5[N+](=O)[O-],-6.070581099999999
JLTGRRGBTPSMPO-UHFFFAOYSA-N,,COc1cc(CC(=O)Nc2cccc(OCC(CC(=O)O)n3ccnc3)c2)ccc1NC(=O)Nc1ccccc1C,Cc1ccccc1NC(=O)Nc2ccc(cc2OC)CC(=O)Nc3cccc(c3)OCC(CC(=O)O)n4ccnc4,COC=1C=C(C=CC1NC(=O)NC=2C=CC=CC2C)CC(=O)NC=3C=CC=C(C3)OCC(CC(=O)O)N4C=CN=C4,-3.6197888
JLUKDLNTLCMRHG-UHFFFAOYSA-N,,CC12CC(O)C3(F)C(CC(O)C4=CC(=O)C=CC43C)C1CC=C2S(C)(=O)=O,CC12CC(C3(C(C1CC=C2S(=O)(=O)C)CC(C4=CC(=O)C=CC43C)O)F)O,C1(CC2(C(=CCC2C3C1(C4(C=CC(=O)C=C4C(C3)O)C)F)S(=O)(=O)C)C)O,-3.9373525000000003
JLVIHQCWASNXCK-UHFFFAOYSA-N,2-butyl-4-chloro-1H-imidazole-5-carbaldehyde,CCCCc1nc(C=O)c(Cl)[nH]1,CCCCc1[nH]c(c(n1)C=O)Cl,CCCCC=1NC(=C(N1)C=O)Cl,-2.199063686
JLXYYOSWXROOHA-UHFFFAOYSA-N,,CCN(CC)C(=O)C(C)(C)c1ccc2[nH]c(-c3cc(C)cc(C)c3)c(C(=O)CN3CCN(C)CC3)c2c1,CCN(CC)C(=O)C(C)(C)c1ccc2c(c1)c(c([nH]2)c3cc(cc(c3)C)C)C(=O)CN4CCN(CC4)C,CCN(CC)C(=O)C(C)(C)C=1C=CC=2NC(=C(C2C1)C(=O)CN3CCN(CC3)C)C=4C=C(C=C(C4)C)C,-3.2518119999999997